/*--------------------------------*- C++ -*----------------------------------*\
| =========                 |                                                 |
| \\      /  F ield         | OpenFOAM: The Open Source CFD Toolbox           |
|  \\    /   O peration     | Version:  2206                                  |
|   \\  /    A nd           | Website:  www.openfoam.com                      |
|    \\/     M anipulation  |                                                 |
\*---------------------------------------------------------------------------*/
FoamFile
{
    version     2.0;
    format      ascii;
    arch        "LSB;label=32;scalar=64";
    class       volScalarField;
    location    "0.01";
    object      alphaP;
}
// * * * * * * * * * * * * * * * * * * * * * * * * * * * * * * * * * * * * * //

dimensions      [0 0 0 0 0 0 0];

internalField   nonuniform List<scalar> 
18900
(
1.893642614
2.731836442
2.140515194
2.604619145
2.371858725
2.336987408
3.178950248
1.91766631
1.763305499
2.3634609
2.283919241
2.271988066
2.460370677
2.757903399
2.179843813
2.096610888
2.023356603
2.081873255
2.3670637
1.816539337
2.101112129
1.972487863
2.141877621
2.335455548
2.412635227
2.159493026
2.271767521
2.13128289
2.107792725
2.240696981
2.414374786
1.9975495
2.233087287
2.27288912
2.116948057
2.106437072
1.996992251
2.304432146
2.305140147
2.45078287
2.187156847
2.125212624
2.377568024
2.134302786
2.37453244
2.122525796
2.255490607
2.010688464
2.442458865
2.071062116
2.182096015
2.166916304
2.305619338
2.171595778
2.059038495
2.320438769
2.093483355
2.220747901
2.236913501
2.28237407
2.076465118
2.310788001
2.267426693
2.32323039
2.10695461
2.289680902
2.173833731
2.258093025
2.378464077
1.995303203
2.120127172
2.142581066
2.156260268
2.093616688
2.103621246
2.288146838
2.344996246
2.14325449
2.226593089
2.075847889
2.150603139
2.341771151
2.287311797
2.157281837
2.102972765
2.21370596
2.05554411
2.084272318
2.217600439
2.308786802
2.550348435
2.759417777
2.543678114
2.26803109
2.959524605
2.936334016
3.065089142
2.652885588
2.189278947
2.254693963
2.51670359
2.622773318
1.882735775
2.182169212
2.568827423
2.521165268
2.422263639
2.619704933
2.677204151
2.680519757
2.683225823
2.728725327
2.618251514
2.635793228
2.841054962
2.714501487
2.72568888
2.803126152
2.745099896
2.59708107
2.6503781
2.661047437
2.519891399
2.625120176
2.892501042
2.635941255
2.569570125
2.767193783
2.748161452
2.58349353
2.562416598
2.630219419
2.487343024
2.546555705
2.330366943
2.603374405
2.681840587
2.642195577
2.49826906
2.695777463
2.544601938
2.5984614
2.799265916
2.587229659
2.510136144
2.544150738
2.592800034
2.707453008
2.669384224
2.778581815
2.700935362
2.655059596
2.73021351
2.591230824
2.794454556
2.544988487
2.58116334
2.536774688
2.571911003
2.558891908
2.588387748
2.479914068
2.603810847
2.611156647
2.471045011
2.495677575
2.558320516
2.584890279
2.719984887
2.524346449
2.623658939
2.705918012
2.646594096
2.68762792
2.528815377
2.570258653
2.539209619
2.592968693
2.57897949
2.48647517
0.6440243555
3.001683551
2.826295732
2.932390052
2.277641709
2.384415305
2.506314115
3.06247979
2.473749895
2.377934031
2.784218879
3.008006611
2.814581666
2.813873565
2.943638673
2.791095098
2.618754411
2.736159408
2.73824941
2.481951093
2.633753769
3.150028843
2.491572684
2.68902892
2.652914275
2.509335269
2.329637649
2.582261652
3.023896833
2.770796771
2.392118642
2.500843109
2.831325344
2.411407264
2.742458818
2.575542829
2.874509692
2.564944751
2.519916151
2.703054531
2.717322286
2.567968963
2.700168116
2.572266403
2.539728753
2.387541839
2.715492197
2.514527464
2.492027252
2.501212384
2.684930368
2.49464364
2.491469364
2.658800611
2.619066363
2.624514523
2.554576537
2.75586553
2.592828886
2.689691979
2.538329662
2.578717092
2.637035097
2.584140741
2.649756336
2.89259362
2.616276303
2.535648666
2.510111556
2.645239163
2.508066362
2.622437114
2.613558079
2.645672666
2.576379571
2.489165496
2.57242161
2.583991091
2.701782638
2.654980663
2.753930112
2.60883328
2.568549747
2.564933711
2.635381399
2.617089695
2.657675701
2.435705718
2.695656023
2.621066881
3.903159566
2.815418669
2.335770616
2.684309083
1.79737295
2.995925327
2.531618521
3.480074309
2.839460821
2.672583659
2.476072344
2.285750927
2.945448815
2.439626385
2.37868674
2.387123127
2.452114186
2.691053225
2.662818628
2.279099581
2.22726543
2.577873441
2.671387536
2.944767308
2.821413637
2.843776299
2.531427851
2.757053577
2.635408039
2.532728548
2.765858115
2.565873243
2.763617844
2.566406908
2.57098648
2.601546188
2.732735528
2.748616688
2.545357888
2.486423928
2.691088653
2.795726367
2.66179639
2.320616872
2.746128337
2.995877067
2.576872897
2.442475625
2.561683133
2.532688122
2.529204081
2.531772539
2.411276845
2.771722913
2.516048042
2.573691118
2.537000698
2.63998084
2.394221739
2.383019636
2.589193108
2.674212546
2.400220485
2.720589915
2.478249049
2.726701795
2.464377881
2.592758442
2.544319527
2.55843214
2.61511067
2.551433897
2.623236715
2.425322388
2.667349665
2.478263833
2.649729516
2.586705877
2.479216977
2.522472027
2.650697204
2.57234256
2.718550563
2.338593382
2.50540132
2.552114501
2.542121676
2.559807173
2.52959222
2.540288145
1.971283443
2.406329431
2.228277991
2.243925991
2.54172758
2.136122097
3.058585934
1.909496818
2.447469875
2.972940615
2.655458545
2.168046242
2.664732559
2.392482994
2.714164032
2.598301887
2.63289477
2.681490064
2.897938226
2.861193801
2.968423422
2.499744333
2.669954771
2.743601309
2.524568391
2.597728089
2.653022856
2.808000631
2.851364217
2.440058901
2.440665381
2.772600782
2.635895227
2.733717193
2.62437634
2.583423346
2.406659199
2.784755261
2.301707698
2.598954126
2.617582328
2.672939238
2.585543492
2.681991772
2.492957364
2.401685878
2.683391424
2.670542969
2.677436515
2.727971286
2.548583591
2.551302533
2.500650466
2.677980547
2.478909431
2.694513756
2.540712214
2.999964129
2.603206251
2.614586037
2.523568165
2.821488704
2.552575261
2.53965123
2.684459156
2.547781247
2.660135655
2.828086718
2.650600219
2.434322582
2.593722972
2.427356993
2.615967189
2.595383457
2.571253449
2.563946224
2.532885237
2.585277129
2.675080209
2.61690633
2.601824914
2.546048659
2.45112552
2.602428616
2.537885988
2.577881339
2.592342951
2.578719597
2.596232961
2.552395006
1.327490092
2.209712244
2.383230874
2.833293339
2.567449073
2.817047073
2.431109962
2.98090084
2.74263444
2.485258203
2.432806448
2.81568934
2.639425146
2.465020015
2.224757733
2.750565586
2.52162598
2.801374041
2.401396601
2.84030292
2.714382684
2.209397591
2.983867156
2.250004701
2.352925874
2.586151028
2.522211958
2.556256494
2.688932373
2.779607859
2.580741248
2.668719016
2.534820832
2.751832542
2.660144015
2.672312019
2.744663619
2.660398217
2.695980439
2.512829353
2.323313223
2.577923764
2.663760485
2.592890137
2.766421034
2.654691003
2.669851954
2.64450783
2.600723506
2.469825257
2.860373957
2.613636635
2.764775199
2.734314151
2.526927748
2.547050556
2.594036497
2.595824858
2.69350979
2.5257179
2.265832553
2.465267586
2.528585121
2.565305207
2.66822852
2.682523188
2.645020215
2.503014537
2.460287414
2.610363468
2.589199318
2.689707699
2.4378144
2.487153248
2.555796733
2.553073807
2.554433706
2.388799521
2.506004451
2.531095428
2.666295298
2.485025418
2.498212791
2.422819716
2.538092173
2.575214746
2.434262297
2.590749493
2.677798166
2.318294272
2.01321408
3.351147425
3.346564766
2.769063751
2.447436674
2.363326081
2.611532328
3.191038578
2.577588212
2.756926737
2.144273009
2.702929446
2.694911887
2.663190999
2.771800836
2.80206641
2.449789302
2.869707565
2.605024838
2.552480874
3.143101259
2.537591397
2.320512872
2.51052866
2.936930684
2.640071961
2.611213828
2.478126049
2.559219221
2.469836942
2.471193144
2.462061952
2.632166151
2.406596362
2.633298521
2.746952173
2.625014149
2.6638726
2.442147699
2.686465265
2.878634641
2.667857212
2.662856718
2.503813358
2.818234817
2.578655163
2.705936447
2.398743588
2.583296003
2.747184601
2.715660598
2.488257697
2.662213132
2.616245664
2.589399491
2.745804124
2.840466526
2.574793442
2.43178475
2.426185734
2.576917091
2.758311708
2.485762605
2.504242993
2.546434562
2.615993359
2.655037437
2.525698307
2.720313742
2.805471676
2.577528482
2.574798563
2.649673675
2.459073271
2.495737358
2.469422611
2.521194344
2.418863933
2.505573752
2.597810169
2.425048634
2.473987709
2.499089669
2.642479168
2.319813228
2.389349021
2.503758484
2.523407005
2.458644452
2.509449536
5.440026305
2.71668949
2.44176405
3.580339531
2.630683618
3.070771727
3.217738495
2.335887715
2.414702472
2.582261426
2.812859038
2.739956394
2.598003787
2.997087609
2.787021405
2.668660459
2.806854213
2.64336201
2.174150601
2.502994857
3.025320302
2.665647598
2.676704898
2.756902453
2.708879679
2.690384825
2.449334151
2.561238895
2.791808968
2.538510898
2.377466639
2.757514973
2.508787234
2.587729592
2.851280046
2.777476182
2.403892558
2.754685862
2.663709807
2.256254341
2.463314874
2.566071546
2.946132328
2.786451418
2.852428759
2.680665714
2.683337627
2.427437883
2.515129631
2.722841848
2.532769595
2.556595529
2.849004496
2.673396455
2.439623038
2.48055586
2.656146089
2.518830899
2.599824449
2.67256041
2.615915398
2.493616542
2.354930147
2.899056263
2.807659668
2.56834621
2.566332852
2.677485163
2.627391499
2.583346878
2.729772417
2.565619605
2.546165582
2.781690898
2.385511622
2.549609202
2.510671321
2.411557131
2.713655496
2.527031588
2.588382374
2.593944886
2.46938458
2.57063751
2.497881015
2.559464951
2.477659992
2.329491937
2.37309067
2.896691549
1.381779603
3.680534102
1.654177301
1.868458424
2.902880344
2.684283361
2.110272815
2.740036586
2.736754755
2.553673121
2.405264294
2.667841481
3.323267231
2.569727389
2.319519997
2.430174953
2.198196169
2.824923955
2.925300644
2.633700947
2.453183371
2.869823663
2.739434805
2.476995705
2.565558449
2.449307229
2.582400591
2.936954103
2.748918931
2.403740193
2.432283161
2.342257253
2.729904995
2.705666341
2.470451599
2.539254261
2.749751833
2.452711525
2.49033619
2.551082849
2.616824057
2.687182307
2.878512468
2.48346485
2.670486523
2.442974543
2.509038918
2.849482961
2.720729201
2.703589647
2.628539184
2.537331526
2.724641938
2.60436722
2.674972527
2.689802101
2.484012817
2.541470323
2.541002472
2.611845917
2.701790692
2.650817198
2.632785805
2.5999284
2.679098258
2.725933274
2.453580094
2.555327263
2.473870276
2.730944356
2.722843845
2.642436424
2.497303028
2.422320972
2.722889344
2.569738026
2.412284342
2.584142658
2.492330021
2.573381406
2.512097521
2.539384097
2.468331953
2.418322733
2.506677204
2.400949829
2.264290972
2.343955917
2.468945
3.477432139
2.815085242
1.64046323
2.528196466
2.405131597
1.86859265
2.290762397
2.258941431
3.212849037
2.913936578
2.604463948
2.353966914
2.540184156
2.612514972
2.467972524
2.845433377
2.614537659
2.747286808
2.785340183
2.650934006
2.229502245
2.438261774
2.322707046
2.737402086
2.867239148
2.565504328
2.758784998
2.794684862
2.553708106
2.498031949
2.585211423
2.330315166
2.622999155
2.561215812
2.777845474
2.685311846
2.655553956
2.468991566
2.718463644
2.416542082
2.52539759
2.737481796
2.78386226
2.788094297
2.325418272
2.689410446
2.710153331
2.454022461
2.656433825
2.446988575
2.484462583
2.720389629
2.424098508
2.690286503
2.720014993
2.711600199
2.61273993
2.695580909
2.454722292
2.588912621
2.763437303
2.705156345
2.583537008
2.455215681
2.641503756
2.454186557
2.782347814
2.498286929
2.534113931
2.505592797
2.535416686
2.587961983
2.62500893
2.468292151
2.514997648
2.439957647
2.520944147
2.469527861
2.526528174
2.489048721
2.45253399
2.519884347
2.463561621
2.605347281
2.315425414
2.369385434
2.437514244
2.312867295
2.576496232
2.277636989
4.746392086
0.7186941208
3.35106267
3.156657103
2.047881717
2.864401079
2.666672081
2.529307009
2.713835104
3.315851337
2.401400126
2.442175625
2.320742222
2.531497472
2.578861715
2.423513185
2.700070653
2.169267105
2.488843463
2.639349472
2.447664028
2.516047365
2.594236987
2.524117663
2.894908804
2.429680834
2.47074866
2.88018641
2.556224215
3.007082847
2.605704384
2.909579096
2.559393169
2.532901164
2.309398999
2.626356428
2.86591188
2.78565421
2.514155395
2.864324125
2.940239767
2.952011871
2.602193419
2.818032592
2.319739956
2.727429559
2.421570159
2.487740075
2.770303186
2.661670637
2.851787377
2.718378667
2.610431015
2.539651253
2.652717439
2.704366802
2.64815443
2.600075656
2.99232252
2.632876782
2.57587864
2.691888506
2.58529733
2.272580559
2.480076703
2.56880815
2.612691845
2.448175077
2.732102311
2.711284851
2.522878805
2.398441298
2.60430261
2.619590508
2.517669851
2.602816536
2.462978814
2.326880919
2.552731611
2.611128664
2.508540875
2.357494331
2.294278336
2.514819807
2.406133781
2.54709318
2.344595561
2.522489242
2.317194379
2.429500654
5.739078112
2.942851146
2.940982785
2.792005175
3.041813644
1.875083132
3.199554728
2.649139188
2.001500711
2.625793617
2.655799896
2.436141187
3.048559035
2.394176742
2.566711075
2.388257472
2.608908297
2.714152624
2.869480437
2.771802515
3.019614355
2.782124497
2.347309041
2.290162991
2.361316508
2.604058356
2.443820397
2.623714977
2.566533013
2.729138186
2.819214045
2.441086844
2.28220825
2.910923899
2.564179919
2.687429141
2.691847078
2.370087041
2.632579251
2.432171387
2.734187267
2.816657221
2.678359746
2.682012007
2.553257055
2.656434986
2.178722963
2.756535819
2.697553287
2.885149544
2.825907103
2.66252889
3.138937417
2.600404102
2.845607875
2.621705651
2.534997911
2.673101238
2.582306963
2.555801205
2.578272608
2.529074115
2.806936699
2.49262695
2.385261
2.558124899
2.387650341
2.463939818
2.6859804
2.573272637
2.433056293
2.570070676
2.289241478
2.567051471
2.667455406
2.60726024
2.496765698
2.403171884
2.463710763
2.545378882
2.360684038
2.525644756
2.454996715
2.360197008
2.335899278
2.522770623
2.413901851
2.468001397
2.500531254
2.37556441
7.559096193
0.7549052071
2.263856205
3.620681809
2.154286128
2.344831302
3.356038175
2.780684496
2.107876537
3.364248887
2.692266674
3.007911644
2.353179518
2.49480605
2.949117562
2.45997014
2.736391121
2.910834951
2.61502822
2.533721296
2.80677526
2.541101764
2.718453047
2.680133815
2.724718392
2.612801831
2.465649944
2.76733141
2.924476716
2.624349838
2.636178644
2.512390832
2.90663888
2.713121617
2.620423162
2.814576464
2.240387457
2.741129438
2.757112445
2.665624172
2.616575114
2.542323216
2.543570562
2.641279275
2.477303442
2.823429223
2.613516367
2.548951271
2.722495485
2.497004567
2.589284958
2.618875962
2.45925432
2.632101304
2.888956256
2.712699759
2.354969762
2.965521784
2.460486854
2.577359786
2.615219587
2.58415199
2.729626273
2.471438358
2.65514611
2.758142373
2.625040417
2.328070414
2.442394071
2.651176561
2.521978366
2.512587363
2.706455809
2.581880438
2.815129008
2.442701129
2.479407151
2.50543908
2.54522166
2.290047284
2.514153611
2.737349639
2.3430746
2.147847183
2.603771439
2.313168571
2.308047332
2.475249809
2.374804355
2.937313343
8.689285462
8.539923194
2.587638264
3.415384236
2.550237441
1.638430637
2.398676341
2.984577447
3.00030949
2.875387659
3.103434275
3.10329213
2.327374883
2.730690468
3.131695734
2.701652593
2.752508561
2.91473627
2.881130337
2.788276487
2.665180664
2.856816328
2.579655925
2.620187946
2.459229947
2.913023601
2.646762883
2.546977985
2.496780664
2.531792107
2.880078424
2.620438534
2.426547224
2.698278237
2.490496694
2.530978616
2.733200665
2.445860589
2.287687187
2.853660358
2.368860565
2.674938048
2.788558209
2.513068408
3.152078256
2.514183625
2.467777037
2.866272917
2.765402414
2.740819423
2.662277413
2.733131073
2.657819689
2.577973984
2.6174459
2.655508747
2.580063076
2.576171119
2.673983605
2.928236088
2.781396375
2.529947941
2.75533159
2.468664378
2.583712685
2.707353267
2.785632088
2.638787743
2.582935117
2.676794162
2.588353118
2.424900224
2.511677697
2.418384977
2.529550941
2.501464693
2.660471581
2.473080694
2.865593585
2.436253529
2.450543984
2.386737177
2.425342808
2.406109722
2.52337
2.489591543
2.309946788
2.347361003
2.361560703
4.963674103
9.845749854
0.8001813495
1.600774089
3.042341364
3.203405125
3.204361987
2.768242195
2.836357816
2.458941458
3.113962547
2.702608589
3.057507424
2.129317891
2.473617319
2.67796831
2.882096524
2.489607009
2.510118368
2.758260905
2.52308107
2.745467656
2.74997901
2.379457277
2.722279495
2.744632992
2.929868446
2.705289186
2.665109221
2.569181424
2.791765017
2.807753054
2.51797774
2.901139028
2.6636373
2.875095723
2.640344046
2.692521327
2.309010039
2.648326103
2.801820398
2.721775673
2.705813709
2.543908086
2.714526037
2.363663812
2.740986755
2.646175576
2.677940077
2.811305551
2.720995941
2.889513506
2.672138634
2.605625339
2.432823624
2.724229323
2.59306749
2.606458643
2.930588349
2.532441396
2.910080878
2.690537502
2.789549607
2.778865179
2.670155423
2.526050847
2.653588707
2.583049211
2.644354556
2.460351895
2.563777228
2.693979003
2.773945982
2.621356121
2.512657828
2.631263048
2.580710713
2.662709954
2.43495181
2.463486423
2.607241883
2.523814853
2.617237313
2.683101213
2.436067301
2.388372442
2.439980184
2.475911047
2.405460055
2.483801661
8.470785048
8.483208787
1.65297333
3.308033743
3.641371623
2.721130666
3.038789301
2.865043339
2.681381707
2.879243328
3.226829169
2.451495572
3.01236596
2.752434156
2.734158996
2.811559441
2.907459709
2.748846285
2.609503458
2.533937879
2.489279187
2.685675252
2.617945385
2.55661084
2.612796279
2.342570286
2.729293994
2.723291004
2.845046428
2.667052608
2.175811362
2.375578988
2.839703335
2.818799095
2.512850578
2.477662804
2.420010094
2.783797307
3.023649212
2.684786521
2.550859634
2.391303447
2.323595023
2.423440364
2.458621582
2.492332406
2.639866795
2.687278305
2.631604522
2.830700774
2.721561365
2.712066693
2.694523815
2.485861509
2.587916536
2.65422698
2.670879886
3.005448006
2.771451726
2.56032087
2.688517889
2.616455199
2.39650525
2.408806527
2.628893107
2.507665884
2.733430632
2.574526523
2.537949818
2.405718511
2.321718896
2.622812261
2.56923529
2.675980402
2.695597903
2.512362098
2.604215181
2.56031932
2.546231448
2.674183783
2.524836329
2.572695104
2.460911779
2.384174643
2.59787253
2.479140148
2.242824229
2.440906961
2.404576165
4.155986099
10.42940097
8.700809838
0.8554167014
3.996151981
3.429247407
3.188046762
2.482523333
1.720707347
1.722750815
2.759679275
2.133171502
2.456873925
2.55524716
2.109788813
2.255645607
2.3162499
3.08869834
2.696285094
2.852899732
2.792849264
3.188238426
2.220807699
2.435473423
2.814462386
2.634079514
2.637254746
2.622474027
2.712738096
2.513644301
2.794563921
2.606675935
2.731476631
2.732322836
2.197932233
2.816506418
2.496703319
2.71132438
2.525089256
2.752496719
2.527378274
2.813514462
2.530064075
2.548156881
2.619694109
2.73051405
2.515714516
2.593912646
2.877354779
2.770323558
2.54383173
2.671945032
2.511200807
2.590421293
2.887642217
2.619295062
2.684280066
2.872786189
2.569225794
2.502568824
2.597535175
2.760161633
2.555024792
2.645115833
2.837409284
2.743836562
2.7330476
2.643856241
2.726814825
2.361709518
2.618235836
2.54931979
2.515763942
2.780353293
2.464525133
2.581634076
2.797659269
2.738427141
2.395262765
2.636707727
2.581697559
2.641856524
2.605967546
2.699802463
2.617891157
2.36025093
2.538931134
2.472783298
2.485771496
2.372260593
8.462936627
9.744550355
9.306854331
0
2.665353634
1.957835348
2.801607996
1.785850411
3.171179073
1.860817475
2.512906723
2.379672494
2.79632382
2.534296131
2.789271893
2.389461461
2.719901507
2.693197747
2.406333673
2.761376812
2.712319532
2.866604528
2.747696378
2.908994934
2.329579265
2.454845571
2.805624949
2.620270676
2.666923679
2.658074466
2.430721607
2.789925914
2.620978602
2.677019856
2.922839988
2.506404899
2.74367445
2.641434941
2.650909386
2.80218025
2.820212911
2.628779336
2.566573482
2.870674911
2.726074598
2.352746584
2.774035166
2.984704755
2.608511577
2.64952815
3.083404316
2.777003366
2.491900749
2.69519102
2.525298477
2.795032273
2.874384115
2.648104332
2.648652028
2.338662719
2.548214306
2.533991062
2.454445457
2.52345093
2.598566561
2.624373023
2.556343724
2.551627742
2.630307093
2.744292449
2.752375859
2.687736868
2.581837846
2.641597517
2.602073031
2.487612461
2.621789065
2.793402746
2.654368516
2.512026609
2.705469769
2.57882696
2.474184233
2.485440299
2.502795186
2.532234895
2.212746713
2.638000652
2.443850758
5.72897778
12.23299558
8.573167011
9.932001149
2.764751373
3.385669726
2.035719158
2.517007807
2.581452424
2.286003865
3.087244543
2.681412127
2.536506169
2.027206466
2.824422705
2.420322726
3.479665553
2.28128613
2.914489769
2.271855862
3.09257803
2.649076181
2.666650092
2.879992806
2.698507188
2.735522266
2.598129864
2.389940415
2.871690497
2.383659052
2.317060608
2.681607568
2.816359085
2.261225205
2.852581467
2.68980044
2.794949586
2.909364331
3.017962766
2.77132414
2.878569433
2.475171225
2.532991418
2.613762015
2.666338365
2.874536311
2.59931116
3.102847626
2.698124334
2.733778396
2.921472061
2.436746265
2.43378803
2.327684396
2.591371404
2.646387351
2.680105081
2.857721766
2.735340249
2.869418766
2.990311629
2.446303079
2.481052161
2.629260606
2.452690393
2.554699463
2.451820216
2.709263402
2.410607511
2.734926388
2.731529336
2.783577565
2.62423379
2.568948989
2.537941492
2.710539094
2.656621041
2.501390673
2.465851062
2.538809024
2.645760148
2.504948254
2.742133931
2.479876803
2.515500991
2.207309987
2.505008739
2.500093014
2.305946988
4.160101278
12.45852798
11.47265757
8.291120741
10.90272026
5.748557036
3.200051645
1.154561447
1.79081583
1.93289991
2.28947275
3.509825982
2.205440837
2.638721372
2.674923165
2.612204918
1.963565495
2.794541298
2.812521404
2.590365353
2.908047786
2.647688106
2.644168286
2.641645129
2.332398021
2.73675319
2.75543662
2.594164845
2.68249733
3.094547692
2.602422447
2.375729441
2.60904692
2.791575103
2.616365619
2.704227767
2.868751243
2.438380551
2.832763418
2.81675455
2.904074477
2.404082952
2.761530277
2.628095795
2.567301221
2.703555378
2.758188963
2.823143511
2.740169655
2.945920203
2.910909855
2.866101455
2.453532109
2.661246652
2.86168772
2.673379383
2.543921476
2.593294269
2.661399153
2.429956775
2.469593065
2.834915549
2.564699645
2.535808283
3.022389498
2.598758629
2.749683745
2.394768711
2.761820326
2.785048851
2.968533394
2.387741281
2.464772585
2.515612332
2.573399183
2.900091549
2.536122473
2.801615482
2.470434048
2.655105006
2.558246318
2.419111654
2.532688393
2.491456171
2.357760771
2.561318982
2.528469571
2.517316339
2.492692584
4.062010003
11.86026388
13.84939403
7.85130244
8.425382407
11.33316776
0.996241094
3.327488385
1.600730882
2.721615221
2.344902202
2.106015569
2.251958422
2.967883512
2.743937746
2.03270951
2.619387575
2.175071132
2.701400519
2.620897858
2.303879258
2.359502577
2.753415916
2.690639837
2.32668479
2.452241215
2.719058247
2.647006858
2.628095896
2.856705455
2.553184083
2.747833508
2.709876492
2.809661177
2.40079886
2.829212159
2.847425657
2.67847579
2.700710666
2.417830691
2.680273349
2.823125091
2.470840672
2.828924442
2.45166018
2.904237562
2.785075208
2.710911622
2.859135371
2.610513871
2.631713201
2.83398323
2.743629751
2.610323606
2.596553814
2.617200567
2.504918734
2.732908894
2.580241718
2.810332074
2.59987677
2.538444391
2.499101483
2.648184759
2.569952938
2.551529413
2.524391043
2.498187883
2.509510538
2.547793329
2.549560207
2.771393281
2.692394593
2.752767136
2.667826437
2.827734626
2.793851451
2.785433784
2.906548559
2.490283142
2.714887453
2.364903017
2.686601621
2.283613257
2.47114699
2.535246918
2.47232353
2.35949907
2.452172006
5.344918319
12.10231516
13.53075454
9.201360732
7.324977916
9.177432045
10.84074156
0
3.460451676
1.872794483
2.085563924
3.483791242
3.047279127
1.857470046
3.297059152
2.543537097
1.780256561
2.623332484
2.723807909
2.80956545
3.278931695
2.43302549
2.419466434
2.961372878
2.859978489
2.565729469
2.439663131
2.484491393
2.727911816
2.757710747
2.692760123
2.276263868
2.944080575
2.818661615
2.942489757
3.07795881
2.436755258
2.65291556
2.733198681
2.51804504
2.614951386
2.966332621
2.589299095
2.524040931
2.882662833
2.520982897
2.548608863
2.617247355
2.806348848
2.867069709
2.584447385
2.917653377
2.607976806
2.582348407
2.460936846
2.558415607
2.652596434
2.835515668
2.504655319
2.296089537
2.432787771
2.715515747
3.00005095
2.683176854
2.693646056
2.593010417
2.614808972
3.155554411
2.821348306
2.382223801
2.566166779
2.62479802
2.718675179
2.810306818
2.873026993
2.907926286
2.828986013
2.975714471
2.872676768
2.679787868
2.599418328
2.824831793
2.598750016
2.530354945
2.527134765
2.303941287
2.497937723
2.742002798
2.500920485
6.635723069
11.63924855
11.85295725
9.063867287
8.056483428
7.413579429
10.81955967
9.054441889
2.155158075
3.599206818
3.246504266
2.634053736
2.657277634
2.575266274
3.360033897
2.480850737
3.226414932
3.066956621
2.098999264
2.785209832
2.391099199
2.424476925
2.492476083
2.552689473
2.504982235
2.975001196
2.608279799
2.566657251
2.227042465
2.60123002
2.440932271
2.438958062
2.344715927
2.593204072
2.716610042
2.602936117
2.617990407
2.515477456
2.79767716
2.549897689
2.441396501
2.304572368
2.344020634
2.677361378
2.54585595
2.467953707
2.699014168
2.726012567
3.057871108
2.406990376
2.690201294
2.811737756
2.674527653
2.8969303
2.532504967
2.308204009
2.488573654
2.589702418
2.460539703
2.570811895
3.127678406
2.815065431
2.624461731
2.824796223
2.748591173
2.451108733
2.540619286
2.875975792
2.773626938
2.96591243
2.706891066
2.640916692
3.059430182
2.72421796
2.736304354
2.803960951
2.503320185
2.952925313
2.461151724
2.573692821
2.806154231
2.990252293
2.401283734
2.493116957
2.42425396
2.621638957
2.495853407
2.567168642
2.741357479
6.697199977
10.99905308
10.40156611
8.953144923
7.547942208
8.165410828
8.262465424
10.01342103
9.136582441
2.241863526
1.12321001
2.026297865
2.256539794
3.266856521
2.885044363
1.747682547
2.580790426
2.080976744
2.769160531
2.94786648
2.597755281
2.026864393
2.650508089
2.513233325
2.693084422
2.676501971
2.462749144
2.303382471
2.370258158
2.574422907
2.323590542
3.48205767
2.713377708
3.091616243
2.186334056
2.557259365
2.686529184
2.472442999
2.982434044
2.930543355
2.424046146
2.892509286
2.740424944
2.298564779
2.358525119
2.449059083
2.81173551
2.713186473
2.30949949
2.530313846
2.59350413
2.929835751
2.300860291
2.518642398
2.837155536
2.528268074
2.664400857
2.666910302
2.834034242
2.697198453
2.553087394
2.666257997
2.905838766
2.951949251
2.859565111
2.57882029
2.606243327
2.764141647
2.863787588
2.674247541
2.72041254
2.878993188
2.758618941
2.661716659
2.884739931
2.867345779
3.101803436
2.414469249
2.498223683
2.868865439
2.595791341
2.62034887
2.905343989
2.561510387
2.44531657
2.801617424
2.418777676
2.699962222
2.941730785
6.799589746
11.30688521
9.796613338
8.745530035
8.902063397
7.570535015
7.783145271
9.348911756
9.619461861
9.678840205
6.997138313
2.726658224
2.576615588
1.676927877
2.875954978
2.787236244
2.545656687
2.448206468
1.955597027
2.693257265
2.726325163
2.910774539
2.44439349
2.891232419
2.864025215
2.918888464
3.187977667
2.597138112
2.790684379
2.778500303
2.649003564
2.787566143
2.615274381
2.509705216
2.437898379
2.904299755
2.731055927
2.885744814
2.96527205
2.575715973
2.967684843
2.244433646
2.450463946
2.983109269
2.611093808
2.632251477
2.617980393
2.926073575
2.575859526
2.613147569
2.790948138
2.992088676
2.656633748
2.852744798
2.881871712
2.853335025
2.561647118
2.513418283
3.043761385
2.673025224
2.910642652
2.631759548
2.674993268
2.741601001
2.612733747
2.928630468
2.660628273
2.989667373
2.547223463
2.622150049
2.761384185
2.896890452
2.706632173
3.062074755
2.603239174
2.517708969
2.587327665
2.444128486
2.543038243
2.561185152
2.811743649
2.807435562
2.746561845
2.602962008
2.583087289
2.627886941
2.825825084
2.428286317
2.526896746
5.703458772
9.979202299
9.913403133
9.015135799
8.278168654
8.574361666
7.178278099
8.962853326
9.3512078
8.349402075
9.789362933
3.640337635
3.647786063
3.412262597
2.791869724
2.448476971
2.230991326
2.554326204
3.45151508
2.471028403
1.955291309
2.305075721
2.704444454
2.892809301
2.499525818
2.591651231
3.15901539
2.402375083
2.702729843
2.425834028
2.469154747
2.292143881
2.960193294
1.984578887
2.720690394
2.61562123
2.56918095
2.672237715
3.073691319
2.564179476
2.417010321
2.598726815
2.666689172
2.610631926
2.733764502
3.059684688
2.869227992
2.562411253
2.517384435
2.526344775
2.954898845
2.363335415
2.48823924
2.576640908
2.553924521
2.502230709
2.763117389
2.550459889
2.57355347
2.805380728
2.727560719
2.558454121
2.792410733
2.849557003
2.431535569
2.619001187
2.590061284
2.598816158
2.835802867
2.63978247
2.997936184
3.047078145
2.494177383
2.817648252
2.71340054
3.101871137
2.481390785
2.746554877
2.942376154
2.606098978
2.697026058
2.725370538
2.613550191
2.43544895
2.592977075
2.457946238
2.535753568
2.876036966
2.556162234
4.864786703
10.18623492
9.295785354
8.575894911
8.739307472
7.51317739
8.07564973
6.948767764
9.229819965
9.085817287
8.325072347
9.711556383
5.05119329
1.68718795
3.297446272
2.179113075
2.689700191
2.902271632
2.953707079
3.335508701
2.722962864
3.188099605
2.522038242
3.208732787
1.972556513
2.794147417
2.607439075
2.782052742
2.698838359
2.362941801
2.45372758
3.009557524
2.772617394
3.420013294
2.360741726
2.746897333
2.559161447
2.490671834
2.427478651
2.662077233
2.692671881
2.493011756
2.2394305
2.754301499
2.863815852
2.154589624
2.888236081
2.659162558
2.272907119
2.693829356
2.737217842
2.534218152
2.699413402
2.974632261
2.845873165
2.578608971
2.41659028
2.738067623
2.851264279
2.664405753
2.629971014
2.297350494
2.999999833
2.824473597
2.84474107
2.678037721
2.818433691
2.451420125
2.489750415
3.390318458
2.810015375
2.817676901
2.801372878
2.738503978
2.793969104
3.066320687
2.742364334
2.706654625
2.683072861
3.074553426
3.02580636
2.765682947
2.438377748
2.773290782
2.597530016
2.801479704
2.609578001
2.789329692
2.464562581
3.477729192
8.862625035
10.12190121
9.378585136
7.5320587
9.229791264
8.637276677
7.567746209
8.563267928
9.08755124
8.907271592
8.92255604
8.860173771
0
2.634116855
1.8480603
1.890103989
2.6522437
2.658366469
2.152103041
3.471867617
2.125727267
3.459697637
3.009381106
2.871241872
2.647649102
2.557487212
2.80777871
2.764336458
2.437543561
2.537825331