/*--------------------------------*- C++ -*----------------------------------*\
| =========                 |                                                 |
| \\      /  F ield         | OpenFOAM: The Open Source CFD Toolbox           |
|  \\    /   O peration     | Version:  2206                                  |
|   \\  /    A nd           | Website:  www.openfoam.com                      |
|    \\/     M anipulation  |                                                 |
\*---------------------------------------------------------------------------*/
FoamFile
{
    version     2.0;
    format      ascii;
    arch        "LSB;label=32;scalar=64";
    class       volScalarField;
    location    "0.01";
    object      Ma;
}
// * * * * * * * * * * * * * * * * * * * * * * * * * * * * * * * * * * * * * //

dimensions      [0 0 0 0 0 0 0];

internalField   nonuniform List<scalar> 
18900
(
0.0929834845
0.09296191933
0.09289859627
0.09280233964
0.09267276775
0.09251061209
0.09231615437
0.09209008642
0.0918327343
0.09154454503
0.09122582565
0.09087712559
0.09049898896
0.09009201686
0.08965668212
0.08919354852
0.08870335555
0.08818650507
0.08764374266
0.08707604173
0.08648383786
0.08586778022
0.08522871247
0.08456743862
0.08388467392
0.08318125143
0.08245810871
0.08171576685
0.08095507533
0.08017691746
0.07938235945
0.07857210386
0.07774671681
0.076907485
0.07605505999
0.07519036755
0.07431423398
0.07342752056
0.07253147863
0.07162663966
0.07071382328
0.06979383941
0.06886775322
0.06793654152
0.06700098251
0.06606190867
0.06512018988
0.06417678689
0.06323267234
0.06228862795
0.06134544644
0.06040414907
0.05946576916
0.05853076179
0.05760038534
0.05667548394
0.05575677851
0.05484532861
0.05394204356
0.05304792799
0.05216389705
0.05129057672
0.05042930834
0.04958073885
0.04874609062
0.04792608567
0.04712212712
0.0463350645
0.04556632456
0.04481681175
0.04408764128
0.04338016491
0.04269563386
0.04203516338
0.04140042599
0.04079275783
0.04021352568
0.0396643241
0.03914677953
0.03866262221
0.03821359809
0.03780159306
0.03742852909
0.03709645364
0.03680719476
0.03656276806
0.03636471002
0.03621472364
0.0361140708
0.03606323334
0.09321988366
0.09319981789
0.09313790009
0.09304303477
0.09291495608
0.09275387398
0.09256047478
0.09233513031
0.09207870212
0.09179115759
0.09147290328
0.09112468404
0.09074680763
0.09034010391
0.08990474048
0.08944157283
0.08895135911
0.088434147
0.08789089171
0.08732280646
0.08673001964
0.08611311989
0.08547339216
0.08481114586
0.08412728343
0.08342265916
0.08269820359
0.08195445477
0.08119224431
0.08041239211
0.07961631325
0.07880421089
0.07797670071
0.07713526106
0.07628055775
0.07541374446
0.07453491396
0.07364541644
0.07274673064
0.07183918456
0.07092347042
0.0700000827
0.06907046468
0.06813579245
0.06719668312
0.0662533939
0.06530759051
0.06436035873
0.06341182613
0.06246314532
0.06151488344
0.0605686189
0.05962513721
0.05868459118
0.0577481578
0.05681731818
0.05589222159
0.0549737459
0.05406349676
0.05316222499
0.05227055698
0.05138910076
0.05051934134
0.04966172743
0.04881743957
0.04798721417
0.04717244181
0.0463739337
0.04559312757
0.0448310825
0.04408836178
0.04336670527
0.04266719572
0.04199092302
0.04133932319
0.04071406386
0.04011639119
0.03954758047
0.03900959789
0.03850419551
0.03803293127
0.03759815912
0.03720201836
0.03684691303
0.03653531068
0.03626953739
0.03605201753
0.03588538564
0.03577245616
0.03571387858
0.09360429838
0.09358590489
0.09352617633
0.09343365007
0.0933080441
0.09314813735
0.09295653418
0.0927316954
0.09247698254
0.09219028463
0.0918729889
0.091525343
0.09114736751
0.09074106193
0.09030598767
0.08984246145
0.08935206283
0.08883432837
0.08829022021
0.08772139167
0.08712710684
0.08650876956
0.08586813529
0.08520368147
0.08451830271
0.08381164861
0.08308485188
0.08233843639
0.08157346604
0.08079127565
0.07999250672
0.07917726076
0.07834605215
0.07750140071
0.07664274864
0.07577204288
0.0748887682
0.0739951862
0.0730919398
0.07217985647
0.07125903816
0.07033046652
0.06939515271
0.06845503732
0.06750970728
0.06655991345
0.06560776411
0.06465440058
0.0636985995
0.0627422094
0.06178630381
0.06083216624
0.05988026108
0.05893028137
0.05798475766
0.05704470216
0.05610942759
0.0551796776
0.05425806001
0.05334541675
0.05244198163
0.05154759244
0.05066430404
0.04979250863
0.04893300519
0.04808668113
0.04725536047
0.04643859871
0.04563863186
0.04485666056
0.04409304274
0.04334913013
0.04262622756
0.04192536641
0.04124770688
0.0405946127
0.0399682029
0.03936880757
0.03879884017
0.03825990907
0.03775351462
0.03728205798
0.03684890775
0.03645530795
0.03610613681
0.03580366892
0.03555193873
0.03535459252
0.03521832683
0.03514373166
0.09411246358
0.09409755113
0.09404137584
0.09395044828
0.09382743145
0.09366945829
0.09347910085
0.09325650723
0.09300342524
0.09271753348
0.09240159096
0.09205486408
0.09167677283
0.09127183566
0.09083620453
0.09037212387
0.08988156447
0.08936260264
0.08881764706
0.0882476246
0.08765112014
0.08703216648
0.08638865903
0.08572244848
0.08503516413
0.08432527262
0.08359543734
0.0828460022
0.08207782177
0.08129231863
0.08048991282
0.07967051719
0.07883530508
0.07798585588
0.07712233446
0.07624563606
0.07535771378
0.07445791786
0.07354924377
0.07263034826
0.07170351881
0.07076816852
0.06982597996
0.0688786958
0.06792448528
0.06696669359
0.06600720459
0.06504486059
0.06407984479
0.06311380683
0.06214784529
0.06118333947
0.06022056732
0.05925834087
0.05830154906
0.05734889443
0.05640066755
0.05545668902
0.05452103928
0.05359308079
0.05267427731
0.05176320124
0.05086274651
0.04997273773
0.04909369523
0.04822706725
0.04737405504
0.04653402199
0.04571004112
0.04490269107
0.04411193829
0.04333958782
0.04258648691
0.04185415976
0.04114307258
0.04045409442
0.03979020758
0.03915133808
0.03853946729
0.03795590594
0.03740291021
0.03688156203
0.03639682036
0.03594932699
0.03554455766
0.03518623919
0.03487917908
0.03463060338
0.0344522843
0.03434076645
0.094750972
0.09473905236
0.094685343
0.09459756447
0.09447785286
0.09432295987
0.09413456382
0.09391436814
0.09366250606
0.09337753361
0.09306402058
0.09271815667
0.09234038391
0.09193535704
0.09149961613
0.09103509547
0.09054375831
0.09002357648
0.08947900715
0.08890661338
0.08830741438
0.0876881678
0.08704094197
0.08637335006
0.08568222798
0.08496855895
0.08423502832
0.08348167135
0.08270875413
0.08191906852
0.08111250391
0.08028709024
0.07944771134
0.07859189638
0.07772185687
0.07683841259
0.07594413405
0.07503696212
0.07412137435
0.07319501308
0.07226027418
0.07131606761
0.07036484507
0.06940771504
0.06844375013
0.0674771679
0.06650665828
0.06553287699
0.06455727601
0.06357967819
0.06260158732
0.06162452368
0.06064681919
0.05967076259
0.05869963323
0.05773095625
0.05676663773
0.05580676202
0.05485491608
0.05390792277
0.05297026686
0.05203871273
0.05111745002
0.0502049001
0.04930194497
0.04841073089
0.04753138744
0.04666497943
0.04581284533
0.04497438596
0.04415053719
0.04334372068
0.04255420923
0.04178396257
0.04103254095
0.04030128193
0.03959172698
0.03890469357
0.03824217904
0.03760332621
0.03699173445
0.03640761326
0.03585527835
0.0353369134
0.03485489632
0.03441587088
0.03402539626
0.03368159815
0.03344174698
0.03322967323
0.09552369254
0.09551309768
0.09546445924
0.09537944412
0.09526477008
0.09511104989
0.09492725169
0.0947073165
0.09445819787
0.09417574308
0.09386516593
0.0935169732
0.09314152659
0.09273510611
0.09230089665
0.09183463284
0.09134322464
0.09082075243
0.09027530268
0.08970093738
0.08909865965
0.08847728336
0.08782607512
0.08715647224
0.08645870422
0.08574116063
0.08500367427
0.08424511565
0.08346609375
0.08267068744
0.08185801588
0.08102683183
0.08017919444
0.07931727891
0.07843848937
0.07754665717
0.07664372008
0.07572950175
0.07480478324
0.07386887742
0.07292267867
0.07196723153
0.07100437814
0.07003740399
0.0690604834
0.06808317065
0.06709895765
0.06611323047
0.06512388649
0.06413195852
0.06313745034
0.06214640177
0.06115160623
0.06015932758
0.05917130413
0.05818430058
0.05720058024
0.05622297564
0.05525074205
0.05428322482
0.05332158041
0.05236586923
0.05142062218
0.05048114142
0.04955039312
0.04863104524
0.04772280243
0.04682646528
0.0459411707
0.04506661401
0.04420570754
0.04336028442
0.042529839
0.04171547117
0.04091814016
0.04013878231
0.03937756824
0.03863540829
0.0379140663
0.03721232901
0.03653254814
0.03587576704
0.03524408036
0.03463549963
0.03405447011
0.03350043111
0.03299832198
0.03246240028
0.03213861103
0.03152474599
0.09641584025
0.09641618549
0.09637592404
0.09629557014
0.09618683446
0.09603583697
0.09585439958
0.09563791766
0.09539129573
0.0951110604
0.09480336484
0.09445643902
0.09408018837
0.09367478279
0.0932393737
0.09277524215
0.09228312235
0.09175814515
0.09121179818
0.09063613114
0.09003067371
0.08940687103
0.08875503
0.08807793811
0.08737622524
0.08665608771
0.08591392813
0.08514813201
0.08436130637
0.08356189331
0.08274390422
0.08190416244
0.08104925769
0.08017890079
0.07929084004
0.07839122687
0.07748137979
0.0765556589
0.07562033621
0.0746742951
0.07371493472
0.07274908435
0.0717727311
0.0707942836
0.06980440656
0.06881652293
0.06781794589
0.06681838848
0.0658119533
0.06480211315
0.06379396032
0.06278669555
0.06177212109
0.06076278558
0.05975470547
0.05874807211
0.0577438954
0.05674626973
0.05575070002
0.05475806201
0.05376876931
0.05278914592
0.0518184027
0.05084947613
0.04988896081
0.04893824184
0.04799815989
0.04706774193
0.0461461593
0.04523467555
0.04433417822
0.04344580326
0.04257131979
0.04170939859
0.04086139678
0.04002936176
0.03921216204
0.03841055008
0.03762621496
0.03685646753
0.03610354664
0.03536736073
0.03465030562
0.03394999007
0.03326065745
0.03256112122
0.03196576628
0.03115160984
0.03077167229
0.02957417031
0.09744520498
0.09745148546
0.09742348829
0.0973444099
0.09723844793
0.09709198193
0.09691568196
0.09670496083
0.09645801791
0.09618395701
0.09587732894
0.0955327439
0.09515657822
0.09475306524
0.09432271823
0.09385758902
0.0933650175
0.09283784032
0.09229175491
0.09171471173
0.09110953303
0.0904829826
0.08982697089
0.08914768968
0.08844472112
0.08772127193
0.08697189998
0.08619962245
0.08540826953
0.0846058335
0.08378026236
0.08293067996
0.0820708966
0.08119129183
0.08029607428
0.07938957179
0.07846961258
0.07753439758
0.07658978498
0.07563324035
0.07466026887
0.07368212978
0.07269134124
0.07170720834
0.07070450229
0.06970452495
0.06869152001
0.06767528212
0.06665244686
0.06562534887
0.06460261942
0.06357540361
0.06254353249
0.06151648716
0.06048854391
0.05946053312
0.05843705561
0.05741541505
0.05639448867
0.05537498245
0.05436084379
0.05335692255
0.05235695098
0.05135783917
0.05036999809
0.04938643732
0.04841234098
0.04744432095
0.04648733506
0.0455380744
0.04459630055
0.04366270996
0.04274129258
0.04183155309
0.04093236356
0.04004473386
0.03917008869
0.03830756188
0.03745967342
0.03662445375
0.03580143175
0.03498947893
0.0341897559
0.03340040639
0.03264225483
0.031795992
0.03116460591
0.03012365764
0.02975926989
0.0282838928
0.09860843983
0.09861743119
0.09858843855
0.09852656146
0.09842318125
0.0982779411
0.09811238424
0.09790062343
0.09765217204
0.0973896294
0.09708913013
0.09674339669
0.09636963001
0.09597125867
0.09554310684
0.09507835418
0.09458657534
0.09405798263
0.09350883314
0.092936276
0.09233270668
0.09170186505
0.09104673528
0.09036367278
0.08965743753
0.08893229866
0.08817646311
0.08740222329
0.08660721032
0.08579743148
0.08496643902
0.08411209593
0.08324458419
0.0823569542
0.08145802419
0.08054187792
0.07961328296
0.07867147298
0.07771717675
0.07674579564
0.07576179747
0.07477133779
0.07377447598
0.07278384647
0.0717634341
0.07075171758
0.06972495857
0.06868847345
0.06765202109
0.06661064778
0.06556703649
0.0645261135
0.06347585024
0.06243004618
0.06138212598
0.06033458987
0.0592889119
0.05824292309
0.05719813423
0.05615473919
0.05511672527
0.05408433876
0.05305651273
0.05203102812
0.05101512981
0.04999895593
0.04899154727
0.04798525293
0.04699047379
0.04600212699
0.04502225722
0.04404542282
0.04307567168
0.04211740149
0.0411685929
0.04022867569
0.03929863771
0.03837629329
0.03746492273
0.03656760324
0.03568173388
0.03480573356
0.03393888219
0.03306461255
0.03227237795
0.03130903335
0.03067102985
0.02952037439
0.02916704043
0.02769829685
0.09990620554
0.09991142831
0.0998730877
0.0998335252
0.09973725586
0.09959142731
0.09943350476
0.09922629652
0.09897803968
0.09872482869
0.09843072984
0.09808843954
0.09772003682
0.09732403279
0.09689506689
0.09643379962
0.09594342013
0.09541502062
0.09486727659
0.09430246951
0.09369115319
0.09306422571
0.09240564579
0.09171717474
0.09101833356
0.09028651462
0.0895279313
0.08875427203
0.08795111977
0.08713833549
0.0863020357
0.0854428772
0.08456902259
0.08367370504
0.08276937794
0.08184666083
0.08091200957
0.07996058217
0.07899757196
0.07801362629
0.07702074982
0.07602181868
0.07501658454
0.07401739244
0.07297823999
0.07195500055
0.07091301094
0.06986099141
0.06881392309
0.06775281045
0.0666955925
0.0656376857
0.06456909268
0.06350590482
0.06243905655
0.06137564652
0.0603033327
0.05923661553
0.05817022835
0.05710526074
0.0560430971
0.054985608
0.05393219944
0.05287637066
0.05183099383
0.05078569757
0.04974806775
0.04870586084
0.04767347412
0.04664752843
0.04563205917
0.04461280993
0.04359869222
0.04259265863
0.0415955628
0.0406061394
0.03962470414
0.03864927368
0.03768007383
0.03672118398
0.03577418792
0.0348415365
0.03392485006
0.03296884949
0.03215407204
0.03110625161
0.03045850404
0.02924070185
0.02888609867
0.02753467091
0.1013179139
0.1013061722
0.1012790843
0.1012655918
0.1011802588
0.1010249345
0.100877003
0.1006874103
0.1004261075
0.1001910164
0.09989811228
0.09956121756
0.09920415157
0.09880430232
0.09838047919
0.09792169954
0.09743530676
0.09690368809
0.09636259355
0.09579292994
0.09518317179
0.0945639622
0.09390474249
0.0932167041
0.09251237501
0.0917860515
0.09101637949
0.09024690491
0.08943605474
0.08862053737
0.08777935169
0.08692027337
0.08603682267
0.08514165088
0.08422526632
0.08329711858
0.08235600498
0.08139872184
0.08042040702
0.07943314698
0.07843102427
0.07742993606
0.07641326368
0.07540047646
0.07434564774
0.07331444557
0.07225300103
0.07118709014
0.0701233331
0.06905098319
0.06798336517
0.06690700781
0.06582712366
0.06474038432
0.06365967006
0.06257645512
0.06148578145
0.06039723332
0.0593121619
0.05822837946
0.05714274855
0.05606065889
0.05498190632
0.05390019912
0.05282170154
0.05175231241
0.05068510435
0.04960970755
0.04854454435
0.0474852814
0.04643016491
0.04537471426
0.0443205863
0.04327311819
0.04223062318
0.04119478887
0.04016390302
0.03914002056
0.03812072872
0.03710552592
0.03609851083
0.03510458309
0.03414879668
0.03311381854
0.03227415285
0.03115295419
0.03049108396
0.029209051
0.02884966004
0.02766945068
0.1028347372
0.1028552376
0.1028057466
0.1028156921
0.1027410809
0.1025870382
0.1024456661
0.1022800263
0.1020054802
0.1017771257
0.1014847642
0.1011699042
0.1008167451
0.1004012869
0.1000016994
0.09953929505
0.09904143782
0.09852223883
0.09799024949
0.09742158058
0.09681470032
0.09619782074
0.09554480204
0.09484749587
0.09414234526
0.09341373755
0.09264934904
0.09186791953
0.09106498196
0.09024164524
0.08940509482
0.0885356326
0.08764627993
0.08674399684
0.08582478116
0.08489400132
0.08394697359
0.08297652744
0.0819958268
0.08100379096
0.07999545421
0.07898507242
0.07795708512
0.07692562509
0.07586574823
0.07481738768
0.073736736
0.07266398791
0.07158761124
0.07050762157
0.06942200046
0.06833097067
0.06724032559
0.06613422968
0.06504302534
0.06394218982
0.06282941458
0.06172917967
0.06062201176
0.05951748159
0.05841111158
0.05730593659
0.05620564826
0.05509970095
0.05399148248
0.05289872662
0.05180190109
0.05070322467
0.04960799288
0.04851962141
0.04742755987
0.04634029836
0.0452516666
0.04416799657
0.04308905397
0.04201023317
0.04093335869
0.0398621637
0.03879619048
0.03773154491
0.03667100534
0.03561057873
0.03461809562
0.03350430484
0.03263157787
0.03143413768
0.03074854762
0.02940643672
0.02904060998
0.02807254719
0.1044367432
0.104516968
0.1044426135
0.1044961533
0.1044240526
0.1042775445
0.1041295526
0.1039766897
0.1037062527
0.103482336
0.1031896276
0.1029067929
0.1025449375
0.1021257604
0.101736555
0.1012780777
0.1007800307
0.1002747616
0.09974740186
0.09917155904
0.09857272052
0.09795605701
0.09730606516
0.09660715686
0.09589822011
0.09516818588
0.09441233957
0.09363066938
0.09282971318
0.09199481619
0.09116100835
0.09028032644
0.08939188287
0.08848880326
0.08756574829
0.08662837569
0.08567152535
0.08469664722
0.08370628712
0.0827156659
0.08169783416
0.08067533776
0.07964136225
0.07859208057
0.07753047543
0.0764606098
0.07537832738
0.07429026183
0.07320657699
0.07211075132
0.07100934599
0.0699165462
0.0688055551
0.06768846122
0.06658104349
0.06546026048
0.06433476348
0.06321776681
0.06209247248
0.06096938758
0.05984260894
0.05872293445
0.05760240239
0.0564680073
0.05534167677
0.05422538413
0.05310666146
0.05198692873
0.05086617848
0.04974899711
0.048630061
0.04751347912
0.04639931212
0.04528534656
0.04417387228
0.04305629755
0.04194158676
0.04082906693
0.03971937787
0.0386081634
0.03750621164
0.03637411623
0.03534590002
0.03415278857
0.03324822697
0.03195510055
0.03125124274
0.02980851811
0.02948522818
0.02871597001
0.1062158958
0.1062913781
0.1062124745
0.1062775131
0.1062171855
0.1061067042
0.105940781
0.1057907073
0.1055387317
0.1053119097
0.1050228046
0.1047705057
0.1043967428
0.1039885797
0.1035889981
0.1031458632
0.1026464941
0.1021536153
0.101626741
0.1010453318
0.1004594559
0.09984999417
0.09919374561
0.09849782035
0.09777561271
0.09705634775
0.0963022869
0.0955280829
0.09471845362
0.09387492977
0.0930377209
0.09216236571
0.09127148538
0.09036653238
0.08944575232
0.08849110271
0.08753741068
0.08655419026
0.08555199413
0.08456356336
0.08353192483
0.08249683434
0.08145799967
0.08039255528
0.07933718285
0.07825001509
0.07715540926
0.07605652368
0.0749664845
0.07385463293
0.07274866688
0.07164511842
0.07052005269
0.06938957446
0.0682664531
0.06712875401
0.06599915081
0.06486053653
0.06371515954
0.06258153281
0.06144043565
0.06030598496
0.05916292032
0.05801374415
0.05686903295
0.05573832498
0.05459457313
0.05346000031
0.05231877146
0.05117369993
0.0500365938
0.04889753396
0.04775858294
0.04662426629
0.04547965956
0.04433566143
0.04319230099
0.04204791261
0.04090329599
0.03974368864
0.03861904965
0.03741071552
0.03635621558
0.03506887965
0.03414848163
0.03274079022
0.03201797604
0.0304480099
0.03023614373
0.0295470696
0.1082400409
0.1081683018
0.1081084984
0.1081743969
0.1081065631
0.1080365845
0.107877669
0.1077374821
0.1074790634
0.107266527
0.1069798655
0.1067381742
0.1063660732
0.1059586018
0.105562386
0.1051316508
0.1046317438
0.1041509559
0.1036250621
0.1030361951
0.1024704535
0.1018505465
0.1012059446
0.1005007416
0.09978310062
0.09906849156
0.09830939758
0.09754423288
0.09672936595
0.09588909778
0.09504275534
0.09416685955
0.09328976181
0.09236882638
0.0914467672
0.09048014059
0.08952214439
0.08852670638
0.08753998878
0.08653561827
0.08549766234
0.08445891446
0.08341118318
0.08234741768
0.08126159003
0.08016723789
0.07906869581
0.07796731411
0.07686622907
0.07575107973
0.07464179714
0.07351660528
0.07237622845
0.07123176242
0.0700986075
0.06894166246
0.06780302642
0.06665539894
0.0655008695
0.0643667746
0.06319809767
0.06205724876
0.06089002702
0.05972615682
0.05856813159
0.05742285284
0.05626397848
0.055112356
0.05394944818
0.05279007215
0.0516387576
0.0504802406
0.04932263315
0.04817125802
0.04700718166
0.04584803928
0.04468644711
0.0435138456
0.04235227839
0.04114256199
0.04001796372
0.03873340373
0.03768052592
0.03628560421
0.03535427742
0.03382630506
0.03308618733
0.03136910099
0.03132674787
0.03056225461
0.1103193775
0.1101133272
0.1101370591
0.1101894775
0.110143254
0.1101004532
0.1099478194
0.1097751732
0.1095542223
0.1093295079
0.109067841
0.1088145859
0.1084518961
0.1080553023
0.1076465779
0.1072221204
0.1067306125
0.1062657653
0.1057253557
0.1051604364
0.1045956027
0.103964057
0.1033267128
0.1026320492
0.1019065002
0.1011994021
0.100437195
0.099676581
0.09887188117
0.09801586677
0.09716921564
0.09629744791
0.09541691756
0.09449472204
0.09356361587
0.09259355494
0.09162322464
0.0906459185
0.08965555062
0.08863515027
0.08759190699
0.08654588309
0.08548727268
0.08441033323
0.08331415742
0.08221726034
0.08111380032
0.08001361122
0.07890950561
0.07779130743
0.0766605326
0.0755240697
0.07436858191
0.07321015526
0.07206113594
0.07090162687
0.0697662779
0.06860163134
0.06744277846
0.06628982129
0.06511973458
0.06395206542
0.06277481869
0.06160335608
0.06043544283
0.05927313988
0.05810442901
0.05692775308
0.05575596135
0.05458712295
0.05342080098
0.05225213546
0.05108460721
0.0499207117
0.04874801841
0.04757787876
0.04640139638
0.04521328359
0.0440466438
0.04281092415
0.04168378472
0.04035679607
0.03930328094
0.03784032075
0.03688666917
0.03525572994
0.03448159208
0.03266346685
0.03270056907
0.03186333646
0.1125096727
0.1122461788
0.1123351312
0.1123170681
0.1123120959
0.1122736208
0.1121259315
0.1119487175
0.1117614358
0.1115084242
0.1112792083
0.1110119525
0.1106496754
0.1102572526
0.1098533855
0.109448119
0.1089509848
0.1084765964
0.1079442538
0.1073969177
0.1068280258
0.1062011881
0.1055689724
0.1048618992
0.1041507875
0.1034413474
0.1026896655
0.1019188722
0.1011100111
0.1002493809
0.09941562094
0.09854554389
0.09765146186
0.09672888541
0.09577964665
0.09482893075
0.09384788022
0.09287431396
0.09188379381
0.09085255983
0.08979667952
0.08875155593
0.08768291348
0.08658572794
0.08548951825
0.08438676354
0.08329069875
0.08218351421
0.08107177619
0.07995699525
0.07880080383
0.07764805304
0.07648871094
0.07532382206
0.07416371511
0.07301042976
0.07186676681
0.07068438989
0.06951062006
0.06835015409
0.06716528799
0.06598779156
0.06480101581
0.06362335636
0.06245045073
0.06126935363
0.06009227727
0.05889918657
0.05772034923
0.05654407854
0.05536555884
0.05420163084
0.05302690074
0.05184866076
0.05067695843
0.04950548171
0.04832424045
0.04713638924
0.04596344988
0.0447395938
0.04359669813
0.042289231
0.04119435043
0.03976446245
0.03873446552
0.03713083006
0.03621486353
0.03446007724
0.03433688789
0.03363212479
0.1147401939
0.114431305
0.1146664587
0.1145996797
0.1145878767
0.1145350543
0.1143975366
0.1142335552
0.1140458233
0.1138247532
0.1135899485
0.1133060008
0.112945349
0.1125664781
0.112179819
0.1117713579
0.1112683675
0.1108091534
0.1102834473
0.109742473
0.10914021
0.1085587823
0.1079152415
0.1072074666
0.106503573
0.1058072028
0.1050333242
0.1042626216
0.103448487
0.1026161473
0.1017611216
0.1008865066
0.09999051176
0.09905979119
0.09812040227
0.09716506989
0.09619275883
0.09522832013
0.09421876951
0.09318411173
0.09210926305
0.09106160338
0.0899904104
0.08887880094
0.0877778569
0.08668365648
0.08558472885
0.08447588976
0.08336056659
0.08223201505
0.08106128022
0.07990957953
0.07873140571
0.07756572488
0.07640426087
0.0752399188
0.07408645494
0.07289635295
0.07171512925
0.0705335614
0.06934687432
0.068164155
0.06697026116
0.06578902581
0.06460140289
0.06340404442
0.06221413236
0.06102184646
0.05983805147
0.05865077641
0.05747056913
0.0562969328
0.05512357404
0.05394713832
0.05277119125
0.0516030982
0.05043020802
0.04924158993
0.04807644572
0.04687824016
0.04572372681
0.0444724795
0.04332351068
0.04200090496
0.04087125377
0.03943027254
0.03836763377
0.03672166193
0.03639147762
0.03607556603
0.1170072529
0.1167670028
0.1171505673
0.1170293465
0.1169676531
0.1169407422
0.1167603136
0.1166309135
0.1164654327
0.1162635545
0.1160165496
0.1157388394
0.1153251334
0.1149969204
0.1146075329
0.1141901906
0.1137052264
0.1132335841
0.1127347382
0.112209533
0.1115971771
0.1110006993
0.11036652
0.1096713675
0.108943725
0.108268195
0.1074915703
0.106703262
0.1058995588
0.1050828487
0.1041959861
0.1033482859
0.1024407174
0.1015010788
0.100563498
0.09961395091
0.09865030053
0.09768327489
0.09665857715
0.0956103469
0.09454148796
0.09348068386
0.09240709455
0.09129234532
0.09019447116
0.08910077215
0.0880013645
0.08689804324
0.08577009698
0.0846116097
0.08344315042
0.08228543147
0.0810997175
0.07993002287
0.07877339127
0.07759228371
0.07642295678
0.07524145579
0.07404252619
0.07284033266
0.07165726167
0.07047744118
0.06927942203
0.06806953888
0.06688157228
0.06567018589
0.06448630138
0.06329444249
0.06210219442
0.0609091086
0.05972224772
0.05854963618
0.05737969228
0.05620143793
0.05503625718
0.05386883182
0.05270179343
0.05152204176
0.05036493089
0.04918982871
0.04803355652
0.0468280474
0.04567429526
0.04442267794
0.04331786905
0.0420016872
0.04076544004
0.03932409335
0.03903302682
0.03971029573
0.1194221573
0.1192274994
0.1197095398
0.1195678236
0.119478307
0.1194586137
0.1192836063
0.1191383775
0.1189958604
0.118805262
0.1185574788
0.1182948818
0.1178559253
0.117545271
0.1171690159
0.1167219481
0.1162618347
0.1158018458
0.1153196734
0.1147790151
0.1141553476
0.1135511517
0.1129232277
0.1122235568
0.1115227444
0.1108216139
0.1100408193
0.1092632398
0.108463451
0.1076261656
0.1067566772
0.1059026792
0.1050170561
0.1040627498
0.1031271084
0.1021805684
0.1012323486
0.100228606
0.09919739536
0.09814912069
0.09707821822
0.0960109084
0.09492558569
0.09382158561
0.09271781001
0.09163070855
0.09053129456
0.08941048008
0.08827784477
0.08709546391
0.08593823131
0.08477592115
0.08357641758
0.08240639131
0.08125116196
0.08005839265
0.07887182306
0.07767878875
0.07647203523
0.07525747757
0.0740708178
0.07287842762
0.07168133519
0.07045567052
0.06925829559
0.06804665324
0.06686759054
0.06567082692
0.06446722846
0.06327087715
0.06208368433
0.06090939519
0.05973745844
0.05856663676
0.05739977142
0.05623433734
0.0550747025
0.05390122611
0.05274826638
0.05158206464
0.05043284059
0.04924787729
0.04811691911
0.04694843636
0.04586052592
0.04421887114
0.0430092341
0.04207188106
0.04164501235
0.04349751784
0.1222083551
0.1218848129
0.1223644865
0.1222319211
0.1221003947
0.1220939326
0.1219914057
0.1217567911
0.1216523225
0.121488786
0.1212211248
0.1209376053
0.1205071172
0.1201949419
0.119850851
0.1193940781
0.1189242445
0.1184744359
0.1180140722
0.1174549736
0.1168339998
0.1162102344
0.1156008325
0.1148981846
0.1142384935
0.1134778386
0.1127017665
0.1119332019
0.1111375157
0.110297432
0.1094445348
0.108587957
0.1076907802
0.1067366658
0.1057924769
0.1048648796
0.103886818
0.1028774534
0.1018452512
0.1007864099
0.099724187
0.09864430212
0.09755788664
0.0964621027
0.09535296102
0.09426334458
0.0931660545
0.09202524182
0.09087740324
0.0896997974
0.08853454743
0.08734840439
0.0861611183
0.08497971125
0.08379669146
0.08260632945
0.08140839966
0.08021039556
0.07899029869
0.07777688116
0.07656710327
0.07537167753
0.07415977841
0.07294186355
0.07172831409
0.07051606569
0.06932187836
0.06811895516
0.06691391837
0.06571505232
0.06452806853
0.06334626857
0.06217378975
0.06100899273
0.05984228878
0.05868252453
0.05751300321
0.05635468791
0.05520050178
0.05403014436
0.05289368219
0.05172182211
0.05067147488
0.04935115545
0.04783580669
0.04635155501
0.04546867201
0.04468198245
0.04412285219
0.04680718054
0.1250269083
0.1246572298
0.1250977492
0.1250832907
0.1248164597
0.1248115175
0.1247892151
0.1245093868
0.1244341777
0.1242845866
0.1240302009
0.1237081708
0.1233221185
0.1229987726
0.1226385817
0.1221906487
0.1217039013
0.1212712526
0.1208234617
0.1202564274
0.1196580039
0.1190105138
0.1183914152
0.1176949493
0.1170630929
0.1162660027
0.1154929708
0.114714663
0.1139324075
0.1130894707
0.1122534866
0.1113794179
0.11048155
0.1095317186
0.1085876107
0.1076571391
0.106656918
0.1056385132
0.104612216
0.1035365171
0.1024722705
0.1013955516
0.1003111218
0.09921365453
0.09809102138
0.09700861359
0.09589240545
0.09474970973
0.0935728079
0.09238710295
0.0912312607
0.09003600421
0.08883280078
0.08765166357
0.08643528908
0.08523464887
0.08404078613
0.0828294809
0.08158980607
0.08036979632
0.07915137606
0.07794517184
0.07673631304
0.07551292652
0.07428276068
0.07306575724
0.07185949769
0.07065457616
0.06944565942
0.06825129941
0.06705445566
0.06587637963
0.06470680839
0.06354004786
0.06237343677
0.06119799482
0.06003585293
0.05886659167
0.05771553359
0.05653691949
0.0554161969
0.05429229177
0.05293347729
0.05124524837
0.04988922982
0.04873308919
0.04789472056
0.04715535908
0.04637744179
0.04980195053
0.1277622897
0.1275970912
0.1279581376
0.1280024774
0.1276951948
0.1277069219
0.1276924224
0.1274315949
0.1273783252
0.1271239004
0.1269557652
0.1266301165
0.1262701383
0.1259402799
0.1255413177
0.1251004912
0.1246536172
0.1242032263
0.1237427523
0.123185663
0.1225759926
0.1219585424
0.1212836528
0.1206342437
0.1199638024
0.1192008262
0.1184011949
0.1176500844
0.11687306
0.1160188131
0.1151651398
0.1143031848
0.113396568
0.1124395348
0.1114991911
0.1105479838
0.1095402597
0.1085279791
0.1074791851
0.1064152001
0.1053349111
0.1042697935
0.1031760019
0.1020627147
0.1009446188
0.0998482535
0.09872218487
0.09756513376
0.09636605951
0.09518708714
0.09401671937
0.09279881417
0.09157636852
0.09039006652
0.08917470742
0.08797080783
0.08676800862
0.08554500162
0.08428433288
0.08305740321
0.08184734839
0.08062163624
0.07939424724
0.07817216558
0.07692089702
0.07571059346
0.07448849227
0.0732900159
0.0720978478
0.0708797901
0.06969244818
0.06851265359
0.06732380609
0.06613627125
0.06498042704
0.06379219368
0.06262754358
0.06144610955
0.06028233779
0.05911240747
0.05801160297
0.05651953038
0.054840069
0.05337471867
0.05218777065
0.05110839353
0.05026339983
0.04953718233
0.04866429131
0.05263128059
0.13060176
0.1307836718
0.1309653671
0.1311221081
0.1307468123
0.1307383644
0.130799263
0.1304794743
0.1304969525
0.1301759019
0.1299862814
0.1296799277
0.1293523579
0.1290120285
0.1285666617
0.1281398617
0.127701603
0.127300496
0.1268102623
0.1262506354
0.1256213573
0.1250287415
0.1243201241
0.1236883295
0.122984447
0.1222707859
0.121450613
0.1207010166
0.1199103256
0.1190443327
0.1181913219
0.1173759241
0.1164073478
0.115460658
0.1145434107
0.113562215
0.1125453815
0.1115149878
0.1104622426
0.1094221258
0.1083326432
0.1072442825
0.1061491552
0.1050431645
0.1039096836
0.1027910653
0.1016542946
0.1004679498
0.09927473856
0.0980737926
0.09690432353
0.09567783855
0.09445975944
0.09324878329
0.09202021174
0.09081735176