/*--------------------------------*- C++ -*----------------------------------*\
| =========                 |                                                 |
| \\      /  F ield         | OpenFOAM: The Open Source CFD Toolbox           |
|  \\    /   O peration     | Version:  2206                                  |
|   \\  /    A nd           | Website:  www.openfoam.com                      |
|    \\/     M anipulation  |                                                 |
\*---------------------------------------------------------------------------*/
FoamFile
{
    version     2.0;
    format      ascii;
    arch        "LSB;label=32;scalar=64";
    class       volScalarField;
    location    "0.01";
    object      mu;
}
// * * * * * * * * * * * * * * * * * * * * * * * * * * * * * * * * * * * * * //

dimensions      [1 -1 -1 0 0 0 0];

internalField   nonuniform List<scalar> 
18900
(
2.861330453e-05
2.861332085e-05
2.861337028e-05
2.861344564e-05
2.861354724e-05
2.861367422e-05
2.861382609e-05
2.861400225e-05
2.861420209e-05
2.861442491e-05
2.861467003e-05
2.861493664e-05
2.861522395e-05
2.861553111e-05
2.861585722e-05
2.86162014e-05
2.861656268e-05
2.861694013e-05
2.861733277e-05
2.861773962e-05
2.861815968e-05
2.861859197e-05
2.861903551e-05
2.861948935e-05
2.861995252e-05
2.862042411e-05
2.862090319e-05
2.862138888e-05
2.86218803e-05
2.862237662e-05
2.862287701e-05
2.862338069e-05
2.862388692e-05
2.862439496e-05
2.862490415e-05
2.862541382e-05
2.862592336e-05
2.862643219e-05
2.862693976e-05
2.862744553e-05
2.862794903e-05
2.862844977e-05
2.862894732e-05
2.862944126e-05
2.86299312e-05
2.863041674e-05
2.863089753e-05
2.863137323e-05
2.863184351e-05
2.863230805e-05
2.863276654e-05
2.863321867e-05
2.863366417e-05
2.863410273e-05
2.863453408e-05
2.863495794e-05
2.863537404e-05
2.86357821e-05
2.863618187e-05
2.863657308e-05
2.863695548e-05
2.863732881e-05
2.863769284e-05
2.863804732e-05
2.863839202e-05
2.863872674e-05
2.863905127e-05
2.863936544e-05
2.863966915e-05
2.86399624e-05
2.864024535e-05
2.864051548e-05
2.864077229e-05
2.864101724e-05
2.86412501e-05
2.864147065e-05
2.864167866e-05
2.864187386e-05
2.864205602e-05
2.864222483e-05
2.864238001e-05
2.864252123e-05
2.864264815e-05
2.864276041e-05
2.864285762e-05
2.86429394e-05
2.864300538e-05
2.864305524e-05
2.864308884e-05
2.864310594e-05
2.861257217e-05
2.8612587e-05
2.861263901e-05
2.861271972e-05
2.86128299e-05
2.86129684e-05
2.861313468e-05
2.861332801e-05
2.861354763e-05
2.861379268e-05
2.861406224e-05
2.861435534e-05
2.861467094e-05
2.861500797e-05
2.861536528e-05
2.861574171e-05
2.861613603e-05
2.861654701e-05
2.86169734e-05
2.86174139e-05
2.861786725e-05
2.861833215e-05
2.861880735e-05
2.861929161e-05
2.861978376e-05
2.862028262e-05
2.862078709e-05
2.862129609e-05
2.86218086e-05
2.862232363e-05
2.862284029e-05
2.86233577e-05
2.862387509e-05
2.862439173e-05
2.862490697e-05
2.862542023e-05
2.862593098e-05
2.862643876e-05
2.862694317e-05
2.862744387e-05
2.862794055e-05
2.862843298e-05
2.862892094e-05
2.862940426e-05
2.862988277e-05
2.863035637e-05
2.863082494e-05
2.863128839e-05
2.863174665e-05
2.863219961e-05
2.863264719e-05
2.863308931e-05
2.863352584e-05
2.863395667e-05
2.863438165e-05
2.863480062e-05
2.86352134e-05
2.86356198e-05
2.863601958e-05
2.863641251e-05
2.863679834e-05
2.863717677e-05
2.863754753e-05
2.863791029e-05
2.863826475e-05
2.863861057e-05
2.863894742e-05
2.863927498e-05
2.863959289e-05
2.863990082e-05
2.864019829e-05
2.864048498e-05
2.864076088e-05
2.864102539e-05
2.86412782e-05
2.864151897e-05
2.864174736e-05
2.864196301e-05
2.864216554e-05
2.864235457e-05
2.864252967e-05
2.864269037e-05
2.864283617e-05
2.864296649e-05
2.864308069e-05
2.864317805e-05
2.86432578e-05
2.864331913e-05
2.864336118e-05
2.864338342e-05
2.861174101e-05
2.8611755e-05
2.861181037e-05
2.861189778e-05
2.861201817e-05
2.861217018e-05
2.861235318e-05
2.861256626e-05
2.861280849e-05
2.861307879e-05
2.861337603e-05
2.861369897e-05
2.861404631e-05
2.861441669e-05
2.861480867e-05
2.861522076e-05
2.861565144e-05
2.861609912e-05
2.861656224e-05
2.861703918e-05
2.861752836e-05
2.861802817e-05
2.861853706e-05
2.861905352e-05
2.86195761e-05
2.862010342e-05
2.862063417e-05
2.86211671e-05
2.862170104e-05
2.862223491e-05
2.862276771e-05
2.862329856e-05
2.862382666e-05
2.862435131e-05
2.862487192e-05
2.862538802e-05
2.862589918e-05
2.862640512e-05
2.862690562e-05
2.862740053e-05
2.862788978e-05
2.862837337e-05
2.862885133e-05
2.862932374e-05
2.862979073e-05
2.863025243e-05
2.863070899e-05
2.863116058e-05
2.863160736e-05
2.863204948e-05
2.863248705e-05
2.863292018e-05
2.863334894e-05
2.863377335e-05
2.86341934e-05
2.863460903e-05
2.863502015e-05
2.86354266e-05
2.86358282e-05
2.863622473e-05
2.863661591e-05
2.863700142e-05
2.863738093e-05
2.863775406e-05
2.863812041e-05
2.863847955e-05
2.863883104e-05
2.863917445e-05
2.863950932e-05
2.863983517e-05
2.864015139e-05
2.864045661e-05
2.8640753e-05
2.864103815e-05
2.864131192e-05
2.86415739e-05
2.864182368e-05
2.86420608e-05
2.864228483e-05
2.864249529e-05
2.864269166e-05
2.86428734e-05
2.864303987e-05
2.864319034e-05
2.864332395e-05
2.864343965e-05
2.864353623e-05
2.864361233e-05
2.864366581e-05
2.864369624e-05
2.861086455e-05
2.861087763e-05
2.861093613e-05
2.861102996e-05
2.861116016e-05
2.861132511e-05
2.861152412e-05
2.86117561e-05
2.861201994e-05
2.861231436e-05
2.8612638e-05
2.861298937e-05
2.861336691e-05
2.861376896e-05
2.861419379e-05
2.861463963e-05
2.861510462e-05
2.861558691e-05
2.861608458e-05
2.861659575e-05
2.861711853e-05
2.861765103e-05
2.861819145e-05
2.861873803e-05
2.861928909e-05
2.861984304e-05
2.86203984e-05
2.862095377e-05
2.862150788e-05
2.862205956e-05
2.862260775e-05
2.862315154e-05
2.862369015e-05
2.862422292e-05
2.862474933e-05
2.862526899e-05
2.862578161e-05
2.862628705e-05
2.862678525e-05
2.862727626e-05
2.862776021e-05
2.862823732e-05
2.862870785e-05
2.862917211e-05
2.862963046e-05
2.863008327e-05
2.863053094e-05
2.863097384e-05
2.863141235e-05
2.863184683e-05
2.863227757e-05
2.863270485e-05
2.863312891e-05
2.863354989e-05
2.86339679e-05
2.863438298e-05
2.86347951e-05
2.863520416e-05
2.863561e-05
2.86360124e-05
2.863641108e-05
2.863680571e-05
2.863719589e-05
2.863758119e-05
2.863796114e-05
2.863833521e-05
2.86387029e-05
2.863906364e-05
2.863941689e-05
2.863976204e-05
2.864009847e-05
2.864042625e-05
2.864074202e-05
2.864104954e-05
2.864134589e-05
2.86416308e-05
2.864190381e-05
2.864216443e-05
2.864241216e-05
2.864264652e-05
2.864286696e-05
2.864307291e-05
2.864326372e-05
2.864343859e-05
2.864359658e-05
2.864373637e-05
2.864385619e-05
2.864395514e-05
2.864402586e-05
2.864407441e-05
2.86099546e-05
2.860996632e-05
2.861002715e-05
2.861012635e-05
2.861026506e-05
2.861044142e-05
2.861065464e-05
2.861090347e-05
2.861118662e-05
2.861150266e-05
2.861185001e-05
2.861222696e-05
2.861263169e-05
2.86130623e-05
2.861351677e-05
2.861399306e-05
2.861448905e-05
2.861500258e-05
2.861553149e-05
2.861607359e-05
2.861662676e-05
2.861718889e-05
2.861775793e-05
2.861833189e-05
2.861890891e-05
2.861948722e-05
2.862006517e-05
2.862064126e-05
2.86212141e-05
2.862178247e-05
2.862234528e-05
2.86229016e-05
2.862345065e-05
2.862399183e-05
2.862452467e-05
2.862504888e-05
2.862556428e-05
2.862607085e-05
2.86265687e-05
2.862705804e-05
2.862753918e-05
2.862801253e-05
2.862847856e-05
2.862893778e-05
2.862939075e-05
2.862983807e-05
2.863028031e-05
2.863071805e-05
2.863115187e-05
2.863158228e-05
2.863200976e-05
2.863243474e-05
2.863285755e-05
2.863327849e-05
2.863369776e-05
2.863411547e-05
2.863453166e-05
2.863494628e-05
2.863535918e-05
2.863577016e-05
2.863617891e-05
2.863658509e-05
2.863698825e-05
2.863738791e-05
2.863778353e-05
2.863817453e-05
2.863856029e-05
2.863894018e-05
2.863931353e-05
2.863967964e-05
2.864003779e-05
2.86403873e-05
2.864072737e-05
2.864105873e-05
2.864137929e-05
2.864168886e-05
2.864198692e-05
2.864227298e-05
2.864254654e-05
2.864280714e-05
2.86430543e-05
2.864328757e-05
2.864350641e-05
2.864371021e-05
2.864389831e-05
2.864406974e-05
2.864422069e-05
2.864435905e-05
2.864445308e-05
2.864455325e-05
2.860900429e-05
2.860901416e-05
2.860907656e-05
2.86091801e-05
2.860932603e-05
2.860951229e-05
2.860973799e-05
2.861000171e-05
2.861030199e-05
2.861063721e-05
2.861100565e-05
2.861140538e-05
2.861183436e-05
2.861229044e-05
2.861277137e-05
2.861327485e-05
2.861379849e-05
2.86143399e-05
2.861489664e-05
2.861546632e-05
2.861604659e-05
2.861663512e-05
2.861722969e-05
2.861782811e-05
2.861842832e-05
2.861902843e-05
2.861962666e-05
2.862022142e-05
2.862081126e-05
2.86213949e-05
2.862197123e-05
2.862253933e-05
2.862309843e-05
2.862364798e-05
2.862418759e-05
2.862471704e-05
2.862523628e-05
2.86257454e-05
2.862624466e-05
2.862673441e-05
2.862721513e-05
2.862768739e-05
2.862815182e-05
2.862860915e-05
2.862906008e-05
2.862950539e-05
2.862994583e-05
2.863038215e-05
2.863081507e-05
2.863124525e-05
2.863167332e-05
2.863209981e-05
2.863252518e-05
2.863294981e-05
2.863337397e-05
2.863379784e-05
2.863422151e-05
2.863464496e-05
2.863506806e-05
2.86354906e-05
2.863591227e-05
2.863633267e-05
2.863675134e-05
2.863716775e-05
2.863758127e-05
2.863799128e-05
2.863839708e-05
2.863879795e-05
2.863919316e-05
2.863958191e-05
2.863996344e-05
2.864033714e-05
2.864070304e-05
2.864105875e-05
2.864140419e-05
2.864173988e-05
2.864206431e-05
2.864237711e-05
2.864267782e-05
2.864296608e-05
2.864324156e-05
2.864350401e-05
2.864375326e-05
2.864398908e-05
2.864421141e-05
2.864442341e-05
2.864460873e-05
2.864481687e-05
2.864493409e-05
2.864518909e-05
2.860801299e-05
2.860802058e-05
2.860808377e-05
2.86081905e-05
2.860834226e-05
2.860853665e-05
2.860877278e-05
2.860904908e-05
2.860936392e-05
2.86097155e-05
2.861010191e-05
2.861052108e-05
2.861097078e-05
2.861144863e-05
2.861195217e-05
2.861247886e-05
2.86130261e-05
2.861359125e-05
2.861417171e-05
2.861476486e-05
2.861536817e-05
2.861597915e-05
2.861659538e-05
2.861721456e-05
2.861783449e-05
2.861845318e-05
2.861906877e-05
2.861967958e-05
2.862028413e-05
2.862088111e-05
2.862146943e-05
2.862204815e-05
2.862261658e-05
2.86231742e-05
2.862372068e-05
2.862425591e-05
2.862477993e-05
2.862529296e-05
2.862579535e-05
2.862628761e-05
2.862677034e-05
2.862724425e-05
2.862771013e-05
2.862816882e-05
2.862862119e-05
2.862906813e-05
2.862951054e-05
2.86299493e-05
2.863038523e-05
2.863081913e-05
2.863125171e-05
2.863168362e-05
2.863211538e-05
2.863254743e-05
2.863298011e-05
2.863341363e-05
2.863384811e-05
2.863428355e-05
2.863471984e-05
2.863515675e-05
2.863559396e-05
2.863603103e-05
2.863646747e-05
2.863690269e-05
2.863733604e-05
2.863776681e-05
2.863819427e-05
2.863861763e-05
2.863903605e-05
2.863944873e-05
2.863985486e-05
2.864025377e-05
2.864064495e-05
2.864102673e-05
2.864139953e-05
2.864176184e-05
2.864210862e-05
2.864245026e-05
2.864277872e-05
2.864309476e-05
2.864339832e-05
2.86436894e-05
2.864396825e-05
2.864423498e-05
2.864448659e-05
2.864474295e-05
2.864494696e-05
2.864523283e-05
2.864535294e-05
2.864575639e-05
2.860698244e-05
2.860698744e-05
2.860705052e-05
2.860715906e-05
2.860731494e-05
2.860751539e-05
2.860775946e-05
2.860804549e-05
2.860837174e-05
2.86087362e-05
2.860913678e-05
2.860957129e-05
2.861003737e-05
2.861053247e-05
2.861105392e-05
2.8611599e-05
2.861216491e-05
2.861274887e-05
2.861334808e-05
2.86139598e-05
2.861458133e-05
2.861521003e-05
2.86158434e-05
2.861647904e-05
2.861711471e-05
2.86177483e-05
2.86183779e-05
2.861900179e-05
2.86196185e-05
2.862022672e-05
2.862082535e-05
2.862141353e-05
2.862199057e-05
2.862255603e-05
2.862310965e-05
2.862365137e-05
2.862418135e-05
2.862469986e-05
2.862520739e-05
2.862570452e-05
2.862619196e-05
2.862667053e-05
2.862714111e-05
2.862760464e-05
2.862806208e-05
2.862851444e-05
2.862896269e-05
2.862940778e-05
2.862985064e-05
2.863029212e-05
2.8630733e-05
2.863117398e-05
2.863161566e-05
2.863205851e-05
2.863250291e-05
2.863294908e-05
2.863339716e-05
2.863384716e-05
2.863429897e-05
2.863475236e-05
2.863520699e-05
2.86356624e-05
2.863611805e-05
2.863657334e-05
2.863702759e-05
2.863748006e-05
2.863792998e-05
2.863837649e-05
2.863881871e-05
2.863925576e-05
2.863968681e-05
2.864011109e-05
2.864052781e-05
2.864093568e-05
2.864133437e-05
2.864172241e-05
2.864210254e-05
2.864246929e-05
2.864282053e-05
2.864315526e-05
2.864348803e-05
2.864380577e-05
2.864411038e-05
2.864440514e-05
2.864467286e-05
2.864496831e-05
2.864517191e-05
2.864550586e-05
2.864561534e-05
2.864605814e-05
2.860591175e-05
2.860591389e-05
2.860597591e-05
2.860608462e-05
2.860624261e-05
2.860644672e-05
2.860669595e-05
2.860698845e-05
2.860732252e-05
2.860769598e-05
2.860810651e-05
2.860855181e-05
2.860902945e-05
2.860953678e-05
2.8610071e-05
2.86106292e-05
2.861120845e-05
2.861180584e-05
2.861241849e-05
2.861304353e-05
2.861367813e-05
2.861431963e-05
2.861496545e-05
2.861561317e-05
2.861626049e-05
2.861690527e-05
2.861754558e-05
2.86181797e-05
2.861880616e-05
2.861942369e-05
2.862003122e-05
2.862062793e-05
2.862121318e-05
2.862178656e-05
2.862234788e-05
2.862289716e-05
2.862343458e-05
2.862396051e-05
2.862447548e-05
2.862498014e-05
2.862547526e-05
2.862596171e-05
2.862644045e-05
2.862691244e-05
2.862737872e-05
2.862784032e-05
2.862829825e-05
2.862875352e-05
2.862920709e-05
2.862965983e-05
2.863011256e-05
2.863056601e-05
2.863102079e-05
2.863147741e-05
2.863193626e-05
2.863239757e-05
2.863286148e-05
2.8633328e-05
2.863379701e-05
2.863426829e-05
2.863474148e-05
2.863521613e-05
2.863569168e-05
2.863616754e-05
2.863664302e-05
2.863711739e-05
2.863758982e-05
2.863805939e-05
2.863852518e-05
2.863898627e-05
2.863944181e-05
2.863989095e-05
2.864033275e-05
2.864076605e-05
2.864119023e-05
2.864160416e-05
2.864200875e-05
2.86423998e-05
2.864278014e-05
2.864315056e-05
2.864350599e-05
2.864384314e-05
2.864415953e-05
2.864447649e-05
2.864475319e-05
2.864508144e-05
2.864528247e-05
2.864564105e-05
2.864574587e-05
2.864619629e-05
2.860479696e-05
2.860479598e-05
2.860485607e-05
2.860496334e-05
2.860512132e-05
2.860532642e-05
2.860557791e-05
2.860587346e-05
2.860621146e-05
2.860658976e-05
2.860700587e-05
2.860745729e-05
2.860794154e-05
2.860845598e-05
2.860899774e-05
2.860956373e-05
2.861015088e-05
2.861075633e-05
2.861137706e-05
2.861201024e-05
2.861265294e-05
2.861330245e-05
2.861395626e-05
2.861461187e-05
2.8615267e-05
2.861591953e-05
2.861656757e-05
2.86172094e-05
2.861784356e-05
2.861846882e-05
2.861908418e-05
2.861968882e-05
2.862028219e-05
2.862086391e-05
2.862143383e-05
2.862199199e-05
2.862253861e-05
2.862307411e-05
2.862359901e-05
2.8624114e-05
2.862461986e-05
2.862511748e-05
2.862560782e-05
2.862609187e-05
2.862657066e-05
2.862704521e-05
2.862751653e-05
2.862798562e-05
2.862845343e-05
2.862892085e-05
2.862938868e-05
2.862985764e-05
2.863032834e-05
2.86308013e-05
2.863127689e-05
2.863175537e-05
2.863223686e-05
2.863272136e-05
2.863320875e-05
2.86336988e-05
2.863419117e-05
2.863468543e-05
2.863518105e-05
2.863567748e-05
2.863617404e-05
2.863666996e-05
2.863716435e-05
2.863765627e-05
2.863814479e-05
2.863862904e-05
2.863910819e-05
2.863958131e-05
2.864004737e-05
2.864050527e-05
2.864095424e-05
2.864139327e-05
2.864182241e-05
2.864223849e-05
2.864264305e-05
2.864303637e-05
2.864341296e-05
2.864377682e-05
2.864412048e-05
2.864447183e-05
2.864475433e-05
2.864510775e-05
2.864530819e-05
2.864567767e-05
2.864578212e-05
2.864624246e-05
2.860363257e-05
2.860362815e-05
2.86036848e-05
2.860378914e-05
2.860394509e-05
2.86041484e-05
2.860439913e-05
2.860469441e-05
2.860503256e-05
2.860541146e-05
2.860582867e-05
2.860628154e-05
2.860676754e-05
2.860728422e-05
2.860782863e-05
2.860839706e-05
2.860898685e-05
2.860959516e-05
2.861021888e-05
2.861085521e-05
2.86115014e-05
2.861215449e-05
2.861281213e-05
2.861347188e-05
2.861413137e-05
2.86147886e-05
2.861544175e-05
2.861608913e-05
2.861672928e-05
2.861736103e-05
2.861798343e-05
2.861859572e-05
2.861919738e-05
2.861978808e-05
2.862036765e-05
2.862093615e-05
2.862149381e-05
2.862204104e-05
2.862257835e-05
2.862310644e-05
2.862362604e-05
2.8624138e-05
2.862464323e-05
2.862514271e-05
2.862563742e-05
2.862612834e-05
2.862661645e-05
2.86271027e-05
2.862758797e-05
2.862807312e-05
2.862855892e-05
2.862904607e-05
2.862953513e-05
2.863002661e-05
2.863052087e-05
2.863101815e-05
2.863151857e-05
2.863202213e-05
2.863252869e-05
2.863303805e-05
2.863354988e-05
2.863406379e-05
2.863457936e-05
2.863509602e-05
2.86356131e-05
2.863612976e-05
2.863664507e-05
2.86371582e-05
2.863766833e-05
2.863817467e-05
2.863867631e-05
2.863917229e-05
2.863966156e-05
2.864014307e-05
2.864061604e-05
2.864107949e-05
2.864153301e-05
2.864197401e-05
2.864240344e-05
2.864282068e-05
2.864322116e-05
2.864361095e-05
2.86439703e-05
2.864435061e-05
2.864464235e-05
2.864502584e-05
2.864523299e-05
2.86456379e-05
2.864574257e-05
2.864622896e-05
2.860241091e-05
2.860240321e-05
2.860245422e-05
2.860255464e-05
2.860270592e-05
2.860290525e-05
2.860315202e-05
2.860344362e-05
2.860377826e-05
2.860415377e-05
2.860456775e-05
2.860501749e-05
2.86055006e-05
2.860601571e-05
2.86065577e-05
2.860712301e-05
2.860771097e-05
2.860831708e-05
2.860893939e-05
2.860957419e-05
2.861021956e-05
2.861087241e-05
2.861153014e-05
2.861219062e-05
2.861285156e-05
2.86135109e-05
2.861416694e-05
2.861481805e-05
2.861546285e-05
2.861610017e-05
2.861672913e-05
2.861734902e-05
2.861795935e-05
2.861855978e-05
2.861915009e-05
2.861973034e-05
2.862030084e-05
2.862086188e-05
2.862141395e-05
2.862195763e-05
2.862249371e-05
2.862302293e-05
2.862354607e-05
2.862406403e-05
2.862457773e-05
2.862508808e-05
2.862559599e-05
2.862610231e-05
2.862660786e-05
2.862711342e-05
2.86276197e-05
2.862812734e-05
2.862863687e-05
2.862914873e-05
2.862966327e-05
2.863018072e-05
2.863070118e-05
2.863122464e-05
2.863175098e-05
2.863227999e-05
2.863281139e-05
2.863334489e-05
2.863388008e-05
2.863441643e-05
2.863495319e-05
2.863548953e-05
2.863602465e-05
2.863655787e-05
2.86370885e-05
2.863761567e-05
2.863813841e-05
2.863865577e-05
2.863916686e-05
2.863967075e-05
2.864016673e-05
2.864065387e-05
2.864113145e-05
2.864159726e-05
2.86420521e-05
2.864249462e-05
2.86429188e-05
2.864333974e-05
2.864371586e-05
2.864413111e-05
2.864443533e-05
2.864485251e-05
2.864506961e-05
2.864550627e-05
2.864561627e-05
2.864613015e-05
2.860112367e-05
2.860111081e-05
2.860115601e-05
2.860124987e-05
2.860139491e-05
2.860158769e-05
2.860182782e-05
2.860211255e-05
2.860244018e-05
2.860280849e-05
2.86032151e-05
2.860365713e-05
2.860413342e-05
2.860464476e-05
2.860517692e-05
2.860573554e-05
2.860631723e-05
2.860691667e-05
2.860753331e-05
2.860816325e-05
2.860880397e-05
2.860945308e-05
2.861010789e-05
2.861076625e-05
2.861142609e-05
2.861208543e-05
2.861274261e-05
2.861339607e-05
2.861404449e-05
2.861468677e-05
2.861532204e-05
2.861594965e-05
2.861656913e-05
2.861718002e-05
2.861778208e-05
2.861837552e-05
2.861896053e-05
2.861953727e-05
2.862010629e-05
2.862066788e-05
2.862122274e-05
2.862177172e-05
2.862231543e-05
2.862285455e-05
2.862338992e-05
2.862392237e-05
2.862445269e-05
2.862498163e-05
2.862550992e-05
2.862603822e-05
2.862656717e-05
2.862709733e-05
2.862762916e-05
2.862816307e-05
2.862869934e-05
2.862923819e-05
2.862977969e-05
2.863032384e-05
2.863087051e-05
2.863141952e-05
2.863197063e-05
2.86325236e-05
2.863307808e-05
2.863363355e-05
2.86341892e-05
2.863474433e-05
2.863529829e-05
2.863585053e-05
2.86364003e-05
2.863694666e-05
2.863748872e-05
2.863802576e-05
2.863855702e-05
2.863908183e-05
2.863959956e-05
2.864010926e-05
2.864060997e-05
2.864109975e-05
2.864157947e-05
2.864204971e-05
2.864249504e-05
2.864295312e-05
2.864334543e-05
2.864380284e-05
2.864412118e-05
2.864458086e-05
2.864481071e-05
2.864528938e-05
2.86454075e-05
2.864595298e-05
2.85997571e-05
2.85997398e-05
2.859977783e-05
2.859986429e-05
2.860000111e-05
2.860018536e-05
2.860041631e-05
2.860069143e-05
2.860100912e-05
2.860136728e-05
2.860176357e-05
2.860219542e-05
2.860266063e-05
2.860315793e-05
2.860368165e-05
2.860422946e-05
2.860480073e-05
2.860539062e-05
2.860599795e-05
2.860661913e-05
2.860725223e-05
2.860789461e-05
2.860854369e-05
2.860919756e-05
2.860985423e-05
2.86105118e-05
2.861116864e-05
2.861182333e-05
2.861247458e-05
2.861312133e-05
2.861376275e-05
2.861439822e-05
2.861502719e-05
2.861564918e-05
2.861626405e-05
2.8616872e-05
2.861747301e-05
2.861806751e-05
2.861865579e-05
2.861923734e-05
2.861981317e-05
2.862038399e-05
2.862095042e-05
2.8621513e-05
2.862207235e-05
2.862262918e-05
2.862318416e-05
2.862373792e-05
2.862429108e-05
2.862484418e-05
2.862539775e-05
2.862595225e-05
2.86265081e-05
2.862706559e-05
2.862762499e-05
2.862818644e-05
2.862875003e-05
2.862931572e-05
2.862988339e-05
2.863045286e-05
2.863102393e-05
2.863159637e-05
2.863216993e-05
2.863274433e-05
2.863331832e-05
2.863389151e-05
2.863446338e-05
2.86350334e-05
2.863560083e-05
2.863616482e-05
2.863672462e-05
2.863727964e-05
2.863782935e-05
2.863837333e-05
2.8638911e-05
2.863944109e-05
2.863996279e-05
2.864047526e-05
2.864097563e-05
2.864147819e-05
2.864193784e-05
2.864243963e-05
2.864284446e-05
2.864335187e-05
2.864368585e-05
2.864419776e-05
2.864444473e-05
2.864497674e-05
2.864510772e-05
2.864568722e-05
2.859829933e-05
2.859827729e-05
2.859830708e-05
2.859838483e-05
2.859851192e-05
2.859868575e-05
2.859890539e-05
2.859916856e-05
2.859947382e-05
2.859981905e-05
2.860020201e-05
2.860062026e-05
2.86010716e-05
2.860155382e-05
2.860206389e-05
2.860259867e-05
2.860315638e-05
2.860373399e-05
2.860432925e-05
2.860493949e-05
2.860556266e-05
2.860619609e-05
2.860683764e-05
2.860748545e-05
2.860813757e-05
2.860879222e-05
2.860944791e-05
2.861010325e-05
2.8610757e-05
2.861140815e-05
2.861205587e-05
2.861269952e-05
2.861333861e-05
2.861397264e-05
2.861460128e-05
2.861522466e-05
2.861584293e-05
2.861645623e-05
2.861706404e-05
2.86176672e-05
2.861826569e-05
2.861886016e-05
2.861945112e-05
2.862003894e-05
2.862062411e-05
2.862120715e-05
2.862178863e-05
2.862236903e-05
2.862294884e-05
2.862352847e-05
2.862410833e-05
2.862468879e-05
2.862527015e-05
2.862585266e-05
2.862643649e-05
2.862702176e-05
2.862760849e-05
2.862819664e-05
2.862878608e-05
2.862937663e-05
2.862996807e-05
2.863056019e-05
2.863115269e-05
2.863174744e-05
2.863234013e-05
2.86329309e-05
2.863351995e-05
2.863410682e-05
2.863469083e-05
2.86352712e-05
2.863584727e-05
2.863641854e-05
2.863698472e-05
2.863754553e-05
2.863810029e-05
2.86386477e-05
2.863918651e-05
2.86397217e-05
2.864023496e-05
2.864077283e-05
2.8641242e-05
2.864178612e-05
2.864220415e-05
2.864275916e-05
2.864311363e-05
2.864368052e-05
2.864395368e-05
2.8644549e-05
2.864470192e-05
2.864530935e-05
2.859673556e-05
2.859670847e-05
2.859672949e-05
2.859679744e-05
2.859691375e-05
2.859707565e-05
2.859728238e-05
2.859753179e-05
2.859782259e-05
2.859815269e-05
2.859852001e-05
2.85989223e-05
2.859935743e-05
2.859982315e-05
2.860031691e-05
2.86008361e-05
2.860137846e-05
2.860194154e-05
2.860252299e-05
2.860312056e-05
2.860373211e-05
2.860435527e-05
2.860498813e-05
2.860562882e-05
2.860627554e-05
2.860692667e-05
2.860758079e-05
2.860823655e-05
2.860889276e-05
2.860954844e-05
2.861020277e-05
2.861085507e-05
2.861150482e-05
2.86121516e-05
2.8612795e-05
2.861343485e-05
2.861407131e-05
2.861470454e-05
2.861533391e-05
2.861595989e-05
2.861658249e-05
2.861720213e-05
2.86178191e-05
2.86184337e-05
2.861904626e-05
2.861965714e-05
2.862026673e-05
2.86208754e-05
2.862148347e-05
2.862209124e-05
2.862269898e-05
2.862330694e-05
2.862391532e-05
2.86245243e-05
2.862513395e-05
2.862574433e-05
2.862635542e-05
2.862696716e-05
2.862757938e-05
2.86281919e-05
2.862880448e-05
2.862941692e-05
2.863002902e-05
2.863064184e-05
2.863125262e-05
2.863186087e-05
2.863246671e-05
2.863306977e-05
2.863366947e-05
2.863426515e-05
2.86348562e-05
2.863544215e-05
2.863602267e-05
2.863659757e-05
2.86371664e-05
2.863772877e-05
2.863828114e-05
2.863883475e-05
2.863936198e-05
2.863991571e-05
2.864041819e-05
2.864096987e-05
2.864142667e-05
2.864199859e-05
2.864239463e-05
2.864299758e-05
2.864331422e-05
2.864397318e-05
2.864416767e-05
2.864478759e-05
2.859505016e-05
2.859501811e-05
2.859503025e-05
2.859508777e-05
2.859519267e-05
2.859534171e-05
2.85955345e-05
2.859576899e-05
2.859604401e-05
2.859635759e-05
2.859670786e-05
2.859709275e-05
2.859751026e-05
2.859795826e-05
2.859843444e-05
2.859893655e-05
2.85994624e-05
2.860000975e-05
2.860057645e-05
2.86011604e-05
2.860175961e-05
2.860237193e-05
2.860299558e-05
2.860362881e-05
2.860426994e-05
2.860491749e-05
2.860557009e-05
2.860622645e-05
2.860688543e-05
2.860754605e-05
2.860820751e-05
2.86088691e-05
2.860953024e-05
2.861019047e-05
2.86108494e-05
2.861150671e-05
2.861216234e-05
2.861281649e-05
2.861346849e-05
2.861411841e-05
2.861476622e-05
2.861541215e-05
2.861605634e-05
2.861669895e-05
2.861734017e-05
2.86179802e-05
2.861861925e-05
2.861925754e-05
2.861989524e-05
2.862053253e-05
2.862116955e-05
2.862180641e-05
2.862244322e-05
2.862308004e-05
2.862371687e-05
2.862435369e-05
2.862499042e-05
2.862562696e-05
2.862626312e-05
2.862689867e-05
2.862753336e-05
2.862816697e-05
2.862879935e-05
2.86294314e-05
2.863006067e-05
2.863068669e-05
2.863130943e-05
2.863192858e-05
2.863254371e-05
2.863315424e-05
2.863375959e-05
2.863435922e-05
2.863495276e-05
2.863554012e-05
2.863612118e-05
2.863669579e-05
2.863726112e-05
2.863782243e-05
2.863837007e-05
2.863892302e-05
2.863945131e-05
2.864000201e-05
2.864049494e-05
2.864106201e-05
2.864150681e-05
2.864211511e-05
2.864249275e-05
2.864319268e-05
2.864345817e-05
2.864404379e-05
2.859322696e-05
2.859319028e-05
2.859319372e-05
2.859324066e-05
2.859333395e-05
2.859346981e-05
2.859364828e-05
2.859386741e-05
2.859412614e-05
2.859442267e-05
2.859475533e-05
2.859512226e-05
2.859552161e-05
2.859595144e-05
2.859640968e-05
2.85968943e-05
2.859740334e-05
2.859793472e-05
2.859848651e-05
2.859905678e-05
2.859964369e-05
2.86002453e-05
2.860085995e-05
2.860148601e-05
2.860212194e-05
2.860276633e-05
2.86034179e-05
2.860407542e-05
2.860473777e-05
2.860540401e-05
2.86060733e-05
2.860674493e-05
2.860741826e-05
2.860809276e-05
2.860876799e-05
2.860944354e-05
2.861011922e-05
2.861079511e-05
2.861147052e-05
2.861214524e-05
2.861281914e-05
2.861349227e-05
2.861416463e-05
2.861483624e-05
2.861550713e-05
2.861617734e-05
2.861684692e-05
2.861751595e-05
2.861818446e-05
2.861885246e-05
2.861951998e-05
2.862018701e-05
2.862085353e-05
2.862151949e-05
2.862218482e-05
2.862284939e-05
2.862351307e-05
2.86241757e-05
2.862483705e-05
2.862549687e-05
2.862615484e-05
2.86268107e-05
2.862746431e-05
2.862811638e-05
2.862876493e-05
2.86294094e-05
2.863004962e-05
2.863068528e-05
2.863131605e-05
2.863194148e-05
2.863256108e-05
2.863317433e-05
2.863378066e-05
2.863437973e-05
2.863497158e-05
2.863555665e-05
2.863613298e-05
2.863670288e-05
2.863726172e-05
2.863781943e-05
2.863835999e-05
2.863890821e-05
2.86394246e-05
2.863997454e-05
2.864045759e-05
2.864103816e-05
2.864146597e-05
2.86421574e-05
2.86424813e-05
2.864292036e-05
2.859124886e-05
2.859120791e-05
2.859120301e-05
2.859123966e-05
2.859132152e-05
2.859144447e-05
2.859160884e-05
2.859181283e-05
2.85920555e-05
2.859233523e-05
2.859265057e-05
2.859299984e-05
2.85933814e-05
2.859379351e-05
2.859423433e-05
2.859470203e-05
2.859519487e-05
2.859571098e-05
2.85962486e-05
2.8596806e-05
2.859738149e-05
2.859797329e-05
2.85985799e-05
2.859919978e-05
2.859983153e-05
2.860047381e-05
2.860112539e-05
2.860178512e-05
2.860245191e-05
2.860312481e-05
2.860380298e-05
2.860448567e-05
2.860517221e-05
2.860586199e-05
2.860655449e-05
2.860724924e-05
2.860794591e-05
2.860864445e-05
2.860934413e-05
2.861004453e-05
2.861074541e-05
2.861144667e-05
2.861214815e-05
2.861284973e-05
2.861355129e-05
2.861425271e-05
2.861495392e-05
2.861565481e-05
2.861635528e-05
2.861705523e-05
2.861775452e-05
2.861845303e-05
2.861915061e-05
2.861984712e-05
2.862054237e-05
2.862123616e-05
2.862192827e-05
2.862261847e-05
2.86233065e-05
2.862399205e-05
2.862467478e-05
2.862535434e-05
2.862603054e-05
2.862670389e-05
2.862737288e-05
2.862803694e-05
2.862869576e-05
2.862934898e-05
2.86299963e-05
2.863063737e-05
2.863127181e-05
2.863189918e-05
2.863251897e-05
2.863313064e-05
2.863373387e-05
2.8634329e-05
2.863491524e-05
2.863549386e-05
2.863606147e-05
2.863662539e-05
2.863717342e-05
2.863772253e-05
2.863824697e-05
2.863878921e-05
2.863927954e-05
2.863983937e-05
2.864026837e-05
2.864090977e-05
2.864122038e-05
2.864117324e-05
2.858909568e-05
2.858905005e-05
2.858903633e-05
2.85890623e-05
2.858913227e-05
2.858924204e-05
2.858939206e-05
2.858958074e-05
2.858980726e-05
2.85900702e-05
2.859036829e-05
2.859070008e-05
2.859106409e-05
2.859145881e-05
2.859188262e-05
2.859233389e-05
2.859281108e-05
2.859331251e-05
2.859383662e-05
2.859438185e-05
2.859494667e-05
2.859552946e-05
2.859612881e-05
2.859674336e-05
2.859737176e-05
2.859801278e-05
2.859866522e-05
2.859932799e-05
2.860000004e-05
2.860068043e-05
2.860136829e-05
2.860206284e-05
2.860276338e-05
2.860346924e-05
2.860417981e-05
2.860489454e-05
2.8605613e-05
2.860633499e-05
2.860705974e-05
2.860778668e-05
2.860851546e-05
2.86092458e-05
2.860997743e-05
2.861071006e-05
2.861144345e-05
2.861217733e-05
2.861291149e-05
2.861364566e-05
2.861437963e-05
2.861511313e-05
2.86158459e-05
2.86165777e-05
2.861730825e-05
2.861803729e-05
2.861876453e-05
2.861948966e-05
2.862021238e-05
2.862093239e-05
2.862164936e-05
2.862236293e-05
2.862307272e-05
2.862377831e-05
2.862447945e-05
2.862517641e-05
2.862586804e-05
2.862655379e-05
2.862723329e-05
2.862790614e-05
2.862857201e-05
2.862923063e-05
2.862988165e-05
2.863052473e-05
2.863115946e-05
2.863178536e-05
2.863240197e-05
2.863300924e-05
2.863360671e-05
2.863419535e-05
2.863477249e-05
2.863534434e-05
2.863589987e-05
2.863645469e-05
2.863698318e-05
2.863752781e-05
2.863801795e-05
2.863856952e-05
2.863900409e-05
2.863959361e-05
2.863995282e-05
2.863932387e-05
2.858674935e-05
2.858669891e-05
2.858667616e-05
2.858669145e-05
2.858674953e-05
2.858684637e-05
2.85869824e-05
2.858715626e-05
2.858736727e-05
2.858761418e-05
2.858789592e-05
2.858821122e-05
2.85885588e-05
2.858893735e-05
2.858934546e-05
2.858978169e-05
2.859024469e-05
2.859073297e-05
2.859124514e-05
2.859177982e-05
2.859233562e-05
2.859291107e-05
2.859350487e-05
2.859411575e-05
2.859474248e-05
2.859538388e-05
2.859603882e-05
2.859670624e-05
2.859738511e-05