/*--------------------------------*- C++ -*----------------------------------*\
| =========                 |                                                 |
| \\      /  F ield         | OpenFOAM: The Open Source CFD Toolbox           |
|  \\    /   O peration     | Version:  2206                                  |
|   \\  /    A nd           | Website:  www.openfoam.com                      |
|    \\/     M anipulation  |                                                 |
\*---------------------------------------------------------------------------*/
FoamFile
{
    version     2.0;
    format      ascii;
    arch        "LSB;label=32;scalar=64";
    class       volScalarField;
    location    "0.01";
    object      p;
}
// * * * * * * * * * * * * * * * * * * * * * * * * * * * * * * * * * * * * * //

dimensions      [1 -1 -2 0 0 0 0];

internalField   nonuniform List<scalar> 
18900
(
1027778.048
1027781.016
1027789.537
1027802.448
1027819.739
1027841.356
1027867.231
1027897.219
1027931.215
1027969.196
1028011.049
1028056.693
1028105.967
1028158.757
1028214.942
1028274.404
1028337.013
1028402.634
1028471.134
1028542.361
1028616.152
1028692.383
1028770.852
1028851.462
1028934.019
1029018.398
1029104.413
1029191.919
1029280.773
1029370.795
1029461.858
1029553.824
1029646.514
1029739.805
1029833.544
1029927.551
1030021.725
1030115.917
1030209.97
1030303.767
1030397.19
1030490.126
1030582.454
1030674.05
1030764.812
1030854.661
1030943.497
1031031.228
1031117.761
1031203.012
1031286.899
1031369.348
1031450.291
1031529.663
1031607.4
1031683.451
1031757.756
1031830.286
1031901
1031969.851
1032036.796
1032101.809
1032164.873
1032225.955
1032285.019
1032342.04
1032397.002
1032449.88
1032500.659
1032549.333
1032595.888
1032640.321
1032682.614
1032722.758
1032760.74
1032796.544
1032830.155
1032861.552
1032890.714
1032917.609
1032942.21
1032964.485
1032984.395
1033001.906
1033016.979
1033029.583
1033039.693
1033047.281
1033052.334
1033054.857
1027761.345
1027764.107
1027772.492
1027785.281
1027802.513
1027824.08
1027849.883
1027879.872
1027913.858
1027951.845
1027993.725
1028039.416
1028088.748
1028141.582
1028197.874
1028257.477
1028320.2
1028385.909
1028454.536
1028525.87
1028599.762
1028676.123
1028754.767
1028835.527
1028918.277
1029002.808
1029088.99
1029176.683
1029265.746
1029356
1029447.281
1029539.49
1029632.461
1029726.049
1029820.125
1029914.486
1030008.979
1030103.49
1030197.884
1030292.001
1030385.744
1030479.012
1030571.677
1030663.629
1030754.749
1030844.944
1030934.148
1031022.271
1031109.189
1031194.831
1031279.146
1031362.006
1031443.388
1031523.225
1031601.404
1031677.881
1031752.63
1031825.619
1031896.797
1031966.127
1032033.569
1032099.075
1032162.639
1032224.241
1032283.864
1032341.473
1032397.024
1032450.502
1032501.876
1032551.154
1032598.349
1032643.429
1032686.394
1032727.246
1032765.953
1032802.5
1032836.887
1032869.081
1032899.066
1032926.798
1032952.23
1032975.341
1032996.078
1033014.39
1033030.216
1033043.51
1033054.228
1033062.325
1033067.749
1033070.492
1027721.494
1027723.932
1027732.122
1027744.704
1027761.677
1027783.086
1027808.765
1027838.658
1027872.633
1027910.629
1027952.564
1027998.308
1028047.756
1028100.766
1028157.252
1028217.076
1028280.049
1028346.069
1028414.996
1028486.672
1028560.933
1028637.726
1028716.8
1028797.958
1028881.151
1028966.207
1029052.902
1029141.108
1029230.789
1029321.682
1029413.538
1029506.322
1029599.981
1029694.259
1029788.975
1029884.077
1029979.364
1030074.675
1030169.758
1030264.63
1030359.182
1030453.285
1030546.737
1030639.454
1030731.404
1030822.446
1030912.51
1031001.464
1031089.198
1031175.721
1031260.956
1031344.725
1031426.959
1031507.714
1031586.885
1031664.342
1031740.04
1031814.014
1031886.186
1031956.494
1032024.917
1032091.43
1032156.038
1032218.661
1032279.314
1032338.038
1032394.748
1032449.37
1032501.937
1032552.465
1032600.904
1032647.238
1032691.509
1032733.699
1032773.766
1032811.698
1032847.505
1032881.174
1032912.67
1032941.943
1032968.955
1032993.657
1033015.971
1033035.854
1033053.21
1033067.968
1033080.021
1033089.241
1033095.515
1033098.759
1027665.089
1027667.25
1027675.113
1027687.333
1027704.084
1027725.231
1027750.745
1027780.457
1027814.378
1027852.327
1027894.241
1027940.008
1027989.611
1028042.836
1028099.503
1028159.595
1028222.909
1028289.333
1028358.719
1028430.873
1028505.573
1028582.759
1028662.38
1028744.256
1028828.148
1028913.914
1029001.368
1029090.372
1029180.835
1029272.462
1029365.195
1029458.88
1029553.453
1029648.664
1029744.317
1029840.324
1029936.592
1030033.01
1030129.217
1030225.105
1030320.752
1030416.029
1030510.707
1030604.447
1030697.401
1030789.729
1030881.029
1030971.089
1031060.017
1031147.76
1031234.172
1031319.199
1031402.657
1031484.673
1031565.165
1031643.921
1031720.977
1031796.394
1031869.94
1031941.476
1032011.228
1032079.209
1032145.205
1032209.269
1032271.424
1032331.63
1032389.853
1032446.061
1032500.305
1032552.466
1032602.579
1032650.638
1032696.656
1032740.585
1032782.468
1032822.3
1032860.037
1032895.723
1032929.248
1032960.588
1032989.767
1033016.691
1033041.292
1033063.472
1033083.135
1033100.184
1033114.396
1033125.543
1033133.313
1033137.563
1027591.381
1027593.168
1027600.644
1027612.469
1027628.964
1027649.798
1027675.109
1027704.708
1027738.474
1027776.383
1027818.315
1027864.144
1027913.799
1027967.172
1028023.998
1028084.402
1028148.078
1028214.931
1028284.819
1028357.579
1028433.077
1028510.986
1028591.254
1028673.833
1028758.513
1028845.164
1028933.534
1029023.553
1029115.209
1029207.979
1029301.687
1029396.489
1029492.192
1029588.631
1029685.556
1029782.859
1029880.312
1029977.991
1030075.595
1030172.877
1030269.975
1030366.668
1030462.773
1030558.112
1030652.656
1030746.287
1030839
1030930.67
1031021.162
1031110.462
1031198.439
1031285.015
1031370.133
1031453.857
1031535.921
1031616.295
1031695.048
1031772.222
1031847.621
1031920.951
1031992.43
1032062.149
1032129.97
1032195.825
1032259.877
1032321.997
1032382.117
1032440.386
1032496.669
1032550.807
1032603.028
1032653.249
1032701.425
1032747.625
1032791.803
1032833.965
1032874.104
1032912.226
1032948.323
1032982.373
1033014.32
1033044.128
1033071.708
1033097.027
1033119.969
1033140.334
1033157.847
1033172.297
1033182.608
1033189.41
1027498.436
1027499.661
1027506.773
1027518.125
1027534.208
1027554.803
1027579.92
1027609.467
1027643.157
1027680.988
1027722.878
1027768.815
1027818.624
1027872.211
1027929.275
1027989.93
1028053.976
1028121.412
1028191.856
1028265.306
1028341.829
1028420.519
1028501.825
1028585.514
1028671.088
1028758.836
1028848.49
1028939.697
1029032.483
1029126.618
1029221.76
1029318.037
1029415.176
1029512.994
1029611.447
1029710.314
1029809.475
1029908.779
1030008.072
1030107.157
1030205.804
1030304.078
1030402.032
1030499.264
1030595.878
1030691.553
1030786.121
1030879.647
1030972.015
1031063.114
1031153.07
1031241.624
1031328.76
1031414.594
1031498.67
1031581.067
1031661.91
1031741.114
1031818.65
1031894.27
1031967.814
1032039.588
1032109.61
1032177.684
1032244.001
1032308.488
1032371.065
1032431.644
1032490.2
1032546.854
1032601.618
1032654.468
1032705.285
1032754.056
1032800.957
1032845.916
1032888.923
1032929.941
1032969.029
1033006.263
1033041.599
1033074.937
1033106.262
1033135.586
1033162.84
1033187.86
1033209.959
1033230.602
1033244.289
1033257.927
1027385.571
1027385.722
1027392.126
1027403.215
1027418.935
1027439.236
1027463.998
1027493.32
1027527.04
1027565.003
1027606.988
1027652.941
1027703.062
1027756.873
1027814.397
1027875.603
1027940.12
1028008.077
1028079.243
1028153.332
1028230.926
1028311.101
1028393.407
1028478.238
1028565.343
1028654.539
1028745.517
1028838.211
1028932.558
1029028.219
1029124.987
1029222.868
1029321.697
1029421.26
1029521.572
1029622.529
1029723.57
1029824.814
1029925.888
1030026.708
1030127.677
1030228.343
1030328.45
1030427.767
1030526.626
1030624.649
1030721.605
1030817.389
1030911.872
1031005.461
1031097.912
1031188.795
1031278.221
1031366.322
1031452.692
1031537.549
1031621.055
1031702.735
1031782.435
1031860.357
1031936.551
1032011.121
1032083.76
1032154.445
1032223.351
1032290.365
1032355.55
1032418.728
1032480.046
1032539.735
1032597.441
1032653.108
1032706.933
1032758.786
1032808.692
1032856.732
1032902.932
1032947.244
1032989.765
1033030.659
1033069.726
1033106.991
1033142.611
1033176.622
1033209.027
1033240.543
1033267.477
1033301.897
1033317.965
1033363.841
1027251.198
1027251.099
1027256.54
1027266.829
1027282.375
1027302.348
1027326.897
1027356.025
1027389.602
1027427.467
1027469.609
1027515.822
1027566.219
1027620.423
1027678.362
1027740.017
1027805.369
1027874.307
1027946.286
1028021.028
1028099.333
1028180.752
1028264.474
1028350.65
1028439.281
1028530.013
1028622.505
1028716.836
1028813.066
1028910.585
1029008.946
1029108.693
1029209.528
1029310.982
1029413.409
1029516.632
1029619.748
1029722.981
1029826.641
1029929.736
1030032.614
1030135.482
1030238.281
1030340.382
1030441.818
1030542.372
1030641.913
1030740.364
1030837.448
1030933.86
1031029.021
1031122.411
1031214.728
1031305.799
1031394.871
1031482.232
1031568.33
1031652.731
1031735.243
1031816.176
1031895.418
1031972.731
1032047.873
1032121.56
1032193.878
1032263.97
1032331.932
1032398.167
1032462.648
1032525.295
1032586.208
1032645.211
1032702.189
1032757.496
1032810.873
1032862.297
1032912.049
1032959.892
1033006.188
1033050.871
1033093.802
1033135.219
1033175.108
1033213.676
1033250.045
1033289.428
1033317.738
1033366.025
1033380.311
1033446.766
1027096.117
1027095.164
1027100.319
1027109.456
1027124.013
1027143.599
1027167.885
1027197.059
1027230.563
1027268.227
1027310.161
1027356.55
1027407.352
1027462.173
1027520.657
1027582.87
1027648.639
1027718.23
1027791.432
1027867.35
1027946.329
1028028.533
1028113.772
1028201.451
1028291.329
1028383.456
1028477.561
1028573.783
1028671.97
1028771.304
1028871.608
1028973.217
1029076.208
1029180.197
1029284.666
1029389.714
1029495.403
1029601.33
1029707.122
1029812.826
1029918.453
1030024.016
1030129.669
1030234.363
1030338.285
1030441.458
1030543.488
1030645.141
1030745.707
1030845.125
1030943.241
1031039.646
1031135.02
1031228.957
1031321.16
1031411.94
1031500.927
1031588.199
1031673.85
1031757.891
1031840.314
1031920.873
1031999.499
1032076.447
1032151.736
1032225.287
1032296.706
1032366.185
1032433.86
1032499.906
1032564.498
1032627.112
1032687.649
1032746.265
1032803.314
1032858.709
1032912.139
1032963.808
1033013.922
1033062.325
1033109.083
1033154.263
1033197.938
1033240.905
1033279.151
1033325.478
1033352.741
1033408.608
1033421.517
1033490.349
1026920.389
1026918.632
1026923.034
1026931.251
1026945.003
1026963.834
1026987.465
1027015.951
1027049.673
1027087.263
1027129.134
1027175.54
1027226.392
1027281.487
1027340.558
1027403.482
1027469.947
1027540.314
1027614.438
1027691.305
1027771.303
1027854.266
1027940.298
1028029.602
1028120.907
1028214.519
1028310.679
1028408.573
1028508.436
1028609.819
1028712.236
1028816.01
1028921.039
1029027.235
1029134.473
1029242.168
1029350.055
1029458.325
1029566.867
1029675.337
1029784.052
1029892.6
1030001.172
1030108.377
1030215.081
1030321.607
1030426.724
1030531.459
1030635.275
1030737.634
1030839.167
1030938.988
1031037.343
1031134.814
1031230.579
1031324.669
1031417.235
1031507.965
1031596.83
1031684.362
1031770.482
1031854.615
1031936.487
1032016.851
1032095.552
1032172.663
1032247.924
1032321.047
1032392.519
1032462.172
1032530.153
1032596.501
1032660.978
1032723.568
1032784.45
1032843.568
1032900.898
1032956.54
1033010.515
1033062.658
1033113.181
1033161.922
1033208.771
1033256.285
1033295.134
1033347.062
1033373.369
1033433.877
1033446.401
1033515.513
1026724.318
1026720.848
1026724.138
1026731.468
1026744.287
1026762.579
1026785.525
1026812.589
1026846.258
1026884.006
1026925.9
1026972.282
1027023.046
1027078.552
1027137.813
1027201.496
1027268.761
1027339.646
1027414.577
1027492.636
1027573.603
1027657.604
1027744.377
1027834.785
1027927.854
1028022.563
1028120.408
1028220.146
1028321.999
1028425.645
1028530.441
1028636.806
1028744.183
1028852.197
1028961.529
1029072.139
1029183.137
1029294
1029405.117
1029516.833
1029628.866
1029740.463
1029852.044
1029962.337
1030072.203
1030181.751
1030289.891
1030397.967
1030505.236
1030611.388
1030716.595
1030820.078
1030921.879
1031022.621
1031122.058
1031219.658
1031315.593
1031410.487
1031503.577
1031594.586
1031684.234
1031772.326
1031857.948
1031941.705
1032024.155
1032104.976
1032183.82
1032261.042
1032336.852
1032410.529
1032482.09
1032552.083
1032620.668
1032687.347
1032752.335
1032815.58
1032876.72
1032936.25
1032994.347
1033050.637
1033104.95
1033157.261
1033206.823
1033259.103
1033299.263
1033356.024
1033382.958
1033446.775
1033460.173
1033529.753
1026505.431
1026500.574
1026503.8
1026509.856
1026521.652
1026538.854
1026561.68
1026587.55
1026620.444
1026657.875
1026699.74
1026745.835
1026796.791
1026852.469
1026911.849
1026975.622
1027043.715
1027115.358
1027190.956
1027270.19
1027352.786
1027438.101
1027525.995
1027617.136
1027711.499
1027807.97
1027907.314
1028009.071
1028112.508
1028218.609
1028325.691
1028433.954
1028544.085
1028655.449
1028767.335
1028880.394
1028994.013
1029107.994
1029222.256
1029336.696
1029451.92
1029566.921
1029681.702
1029795.535
1029909.064
1030021.727
1030133.244
1030244.873
1030355.602
1030465.499
1030573.768
1030681.219
1030787.413
1030892
1030995.33
1031096.684
1031196.567
1031294.971
1031391.819
1031486.858
1031580.331
1031672.474
1031762.535
1031850.399
1031936.913
1032021.427
1032103.827
1032185.173
1032265.114
1032342.776
1032418.547
1032492.557
1032565.033
1032636.113
1032705.438
1032772.853
1032838.21
1032901.917
1032964.119
1033024.357
1033082.782
1033139.972
1033192.27
1033249.432
1033291.643
1033353.255
1033381.867
1033448.906
1033465.04
1033534.686
1026267.207
1026259.001
1026260.82
1026265.231
1026276.028
1026291.202
1026314.52
1026339.731
1026371.38
1026408.297
1026450.011
1026495.509
1026546.21
1026602.183
1026662.294
1026725.922
1026794.693
1026867.066
1026943.233
1027023.104
1027106.738
1027193.641
1027283.279
1027376.061
1027472.09
1027570.043
1027670.581
1027774.439
1027880.18
1027988.225
1028097.5
1028208.395
1028321.156
1028434.965
1028550.231
1028666.074
1028782.227
1028899.537
1029017.551
1029135.205
1029253.376
1029371.509
1029489.554
1029607.255
1029724.21
1029841.118
1029956.774
1030072.164
1030186.455
1030299.583
1030411.973
1030522.929
1030632.427
1030741.444
1030849.241
1030954.176
1031058.343
1031161.263
1031261.9
1031361.102
1031458.531
1031554.658
1031648.678
1031740.669
1031831.707
1031920.965
1032007.585
1032092.369
1032176.129
1032258.139
1032338.071
1032416.474
1032493.249
1032568.634
1032642.19
1032713.623
1032783.524
1032851.874
1032918.205
1032982.58
1033045.672
1033108.208
1033162.941
1033226.266
1033271.176
1033337.891
1033368.954
1033440.406
1033458.871
1033530.854
1025999.251
1025992.245
1025991.618
1025996.242
1026006.015
1026019.657
1026040.788
1026066.49
1026097.249
1026133.335
1026174.763
1026220.24
1026270.643
1026326.567
1026387.429
1026451.338
1026520.318
1026593.612
1026670.694
1026751.639
1026836.163
1026924.261
1027015.438
1027109.789
1027207.909
1027308.373
1027410.813
1027515.795
1027623.452
1027734.032
1027846.308
1027959.342
1028074.85
1028191.966
1028309.561
1028428.835
1028548.292
1028668.344
1028789.765
1028910.821
1029031.804
1029153.766
1029275.203
1029397.17
1029518.561
1029638.398
1029758.071
1029877.729
1029996.258
1030113.433
1030229.751
1030344.816
1030458.132
1030570.683
1030682.405
1030792.288
1030900.384
1031007.029
1031112.591
1031216.559
1031318.148
1031418.256
1031516.562
1031612.629
1031707.552
1031801.054
1031892.428
1031981.57
1032069.477
1032155.955
1032240.203
1032322.708
1032403.59
1032482.903
1032560.55
1032636.67
1032711.037
1032784.016
1032855.302
1032924.555
1032991.19
1033059.231
1033117.713
1033187.927
1033235.283
1033309.275
1033342.637
1033420.368
1033441.061
1033515.443
1025702.441
1025697.618
1025695.674
1025699.094
1025708.688
1025722.017
1025741.388
1025766.868
1025797.387
1025832.865
1025874.317
1025920.33
1025970.291
1026025.989
1026087.245
1026151.95
1026221.127
1026294.697
1026372.541
1026454.561
1026540.409
1026629.728
1026722.084
1026818.037
1026917.824
1027020.519
1027125.716
1027233.143
1027342.452
1027454.992
1027570.048
1027686.489
1027804.309
1027924.237
1028045.236
1028167.923
1028291.088
1028414.242
1028539.072
1028663.919
1028788.452
1028913.608
1029038.569
1029163.749
1029289.143
1029413.554
1029537.474
1029661.375
1029784.088
1029905.839
1030026.523
1030145.557
1030262.988
1030379.727
1030495.418
1030609.707
1030722.659
1030833.339
1030943.061
1031051.129
1031157.281
1031262.118
1031365.04
1031465.666
1031564.685
1031662.143
1031757.903
1031851.563
1031943.086
1032033.573
1032122.76
1032209.993
1032295.185
1032378.699
1032460.741
1032541.334
1032620.05
1032697.132
1032772.443
1032847.438
1032917.451
1032992.95
1033054.521
1033132.116
1033181.806
1033264.113
1033300.38
1033386.588
1033409.034
1033488.122
1025385.841
1025378.395
1025373.784
1025375.681
1025382.476
1025395.699
1025414.778
1025440.42
1025470.263
1025506.382
1025546.983
1025593.576
1025643.916
1025699.325
1025760.819
1025826.299
1025896.482
1025970.844
1026049.365
1026131.668
1026218.483
1026309.48
1026403.649
1026501.016
1026602.301
1026706.862
1026814.146
1026924.713
1027036.844
1027150.977
1027268.222
1027388.007
1027509.363
1027631.648
1027755.466
1027880.845
1028008.498
1028136.22
1028264.602
1028393.093
1028521.771
1028650.815
1028779.724
1028908.118
1029037.215
1029166.482
1029294.348
1029422.177
1029549.598
1029675.603
1029800.938
1029924.634
1030046.617
1030167.772
1030287.661
1030406.507
1030524.112
1030639.436
1030753.636
1030866.118
1030976.519
1031085.313
1031192.587
1031298.191
1031401.973
1031504.114
1031604.152
1031702.182
1031797.876
1031892.378
1031985.675
1032076.977
1032166.829
1032254.779
1032340.964
1032425.877
1032508.512
1032590.782
1032669.344
1032750.467
1032823.266
1032905.49
1032969.388
1033055.921
1033108.696
1033199.244
1033239.869
1033334.803
1033358.666
1033445.674
1025038.865
1025028.916
1025022.469
1025025.149
1025031.349
1025045.111
1025062.671
1025087.199
1025116.869
1025153.259
1025193.545
1025239.792
1025289.902
1025345.39
1025406.489
1025472.486
1025543.512
1025619.135
1025699.377
1025783.409
1025870.837
1025962.596
1026058.823
1026158.416
1026261.514
1026368.07
1026477.301
1026589.716
1026704.969
1026822.461
1026942.603
1027064.807
1027188.836
1027315.055
1027442.144
1027570.34
1027700.97
1027832.452
1027964.528
1028097.155
1028230.03
1028363.459
1028496.874
1028630.183
1028762.938
1028896.254
1029029.335
1029161.259
1029292.449
1029422.619
1029552.166
1029681.045
1029808.541
1029934.592
1030059.519
1030182.882
1030304.169
1030423.926
1030542.958
1030659.999
1030774.875
1030888.565
1031000.692
1031110.809
1031219.12
1031325.883
1031430.319
1031532.862
1031633.545
1031731.992
1031829.305
1031924.842
1032018.521
1032110.926
1032201.688
1032290.165
1032376.677
1032462.901
1032545.902
1032630.952
1032708.206
1032795.277
1032863.433
1032954.789
1033013.222
1033110.939
1033158.114
1033258.997
1033286.31
1033384.141
1024667.153
1024653.181
1024645.746
1024647.917
1024655.107
1024668.165
1024686.249
1024708.666
1024737.138
1024771.538
1024812.514
1024858.749
1024910.182
1024965.189
1025026.508
1025092.694
1025164.388
1025240.371
1025321.153
1025407.39
1025497.236
1025590.399
1025687.513
1025788.712
1025894.398
1026002.555
1026114.271
1026229.011
1026346.479
1026466.401
1026589.546
1026715.372
1026843.007
1026972.48
1027103.701
1027235.272
1027368.59
1027503.755
1027639.431
1027775.881
1027913.347
1028051.625
1028188.919
1028326.746
1028464.924
1028602.55
1028739.582
1028876.531
1029012.998
1029147.295
1029281.136
1029414.554
1029546.822
1029678.466
1029808.912
1029937.767
1030063.959
1030187.919
1030311.362
1030433.052
1030552.6
1030670.888
1030787.743
1030902.851
1031015.712
1031126.871
1031236.258
1031343.556
1031448.97
1031552.171
1031653.487
1031753.286
1031850.828
1031946.648
1032041.49
1032134.463
1032224.891
1032314.609
1032401.877
1032489.7
1032571.808
1032659.745
1032736.041
1032825.913
1032895.187
1032990.333
1033053.623
1033144.622
1033184.851
1033291.753
1024269.746
1024252.918
1024243.076
1024242.124
1024247.95
1024259.172
1024278.15
1024300.069
1024328.491
1024361.867
1024401.904
1024446.579
1024499.69
1024555.92
1024617.779
1024685.204
1024757.168
1024834.546
1024915.835
1025002.125
1025094.386
1025190.316
1025289.725
1025392.616
1025500.907
1025611.194
1025724.484
1025841.875
1025962.44
1026085.007
1026210.577
1026338.805
1026469.374
1026602.552
1026737.93
1026874.313
1027011.562
1027150.298
1027289.549
1027429.709
1027571.239
1027714.028
1027856.5
1027999.137
1028142.335
1028284.562
1028426.751
1028568.186
1028709.199
1028848.954
1028987.446
1029125.389
1029262.38
1029398.815
1029533.868
1029667.904
1029800.837
1029930.784
1030058.546
1030185.467
1030310.141
1030432.733
1030553.741
1030673.649
1030791.546
1030907.505
1031021.668
1031133.778
1031243.843
1031351.8
1031457.685
1031561.649
1031663.888
1031763.845
1031861.937
1031958.384
1032052.797
1032146.1
1032237.169
1032327.994
1032414.188
1032503.172
1032584.509
1032674.438
1032749.74
1032844.359
1032906.236
1032987.505
1033041.928
1033156.288
1023827.883
1023815.319
1023807.385
1023805.114
1023809.154
1023818.422
1023834.691
1023858.609
1023887.099
1023920.671
1023961.119
1024005.943
1024058.016
1024116.318
1024177.962
1024246.468
1024319.705
1024398.645
1024481.326
1024568.793
1024661.837
1024759.913
1024861.449
1024966.766
1025076.391
1025190.892
1025306.906
1025426.457
1025549.498
1025675.749
1025804.153
1025935.734
1026068.872
1026204.906
1026344.009
1026484.788
1026626.136
1026769.38
1026913.616
1027058.402
1027204.039
1027350.84
1027497.983
1027644.796
1027792.718
1027940.617
1028087.966
1028234.053
1028379.393
1028524.929
1028669.258
1028812.212
1028954.181
1029095.796
1029235.508
1029373.835
1029511.651
1029647.717
1029781.059
1029913.561
1030044.387
1030172.304
1030297.82
1030421.997
1030545.087
1030666.721
1030785.849
1030902.131
1031016.782
1031129.458
1031240.72
1031349.571
1031455.945
1031560.268
1031662.511
1031763.073
1031861.122
1031957.711
1032052.132
1032146
1032235.663
1032327.372
1032411.962
1032503.056
1032582.281
1032665.481
1032710.787
1032792.768
1032855.966
1032943.817
1023355.555
1023346.039
1023339.261
1023334.253
1023340.438
1023347.961
1023360.664
1023385.986
1023413.311
1023445.873
1023487.079
1023534.025
1023585.717
1023645.077
1023707.098
1023775.655
1023850.827
1023931.508
1024015.565
1024104.165
1024198.19
1024298.62
1024402.459
1024510.222
1024621.392
1024738.502
1024858.361
1024981.519
1025107.529
1025236.205
1025368.74
1025503.86
1025640.608
1025779.877
1025922.963
1026067.753
1026213.774
1026360.906
1026509.214
1026658.921
1026809.655
1026961.662
1027114.052
1027266.038
1027418.397
1027570.686
1027723.147
1027875.189
1028025.798
1028176.366
1028326.506
1028474.967
1028622.137
1028769.173
1028915.122
1029059.134
1029201.538
1029342.608
1029482.067
1029620.009
1029756.645
1029890.458
1030021.617
1030150.929
1030278.658
1030405.084
1030529.798
1030651.617
1030771.195
1030888.866
1031004.855
1031118.862
1031230.464
1031339.256
1031445.782
1031550.304
1031652.505
1031752.932
1031850.563
1031948.247
1032042.009
1032136.435
1032224.971
1032316.687
1032383.762
1032449.186
1032505.69
1032590.593
1032655.165
1032729.605
1022861.05
1022844.41
1022837.559
1022828.712
1022832.628
1022840.97
1022854.349
1022875.323
1022904.058
1022938.56
1022976.639
1023024.034
1023075.365
1023135.568
1023201.181
1023270.964
1023346.756
1023429.119
1023515.723
1023605.876
1023700.674
1023802.942
1023909.552
1024020.493
1024134.352
1024252.99
1024376.419
1024502.923
1024633.187
1024766.122
1024902.013
1025041.317
1025182.397
1025325.003
1025471.563
1025620.986
1025771.422
1025923.779
1026077.423
1026231.6
1026387.18
1026543.589
1026701.946
1026859.803
1027017.932
1027176.355
1027333.25
1027490.023
1027646.756
1027803.005
1027959.108
1028114.273
1028267.645
1028419.117
1028570.241
1028720.8
1028869.665
1029016.006
1029161.065
1029304.526
1029447.105
1029588.032
1029725.326
1029860.049
1029993.31
1030124.601
1030254.161
1030381.555
1030506.764
1030629.779
1030750.577
1030869.682
1030986.564
1031100.592
1031211.97
1031321.133
1031427.656
1031532.527
1031634.131
1031735.051
1031832.604
1031932.856
1032020.154
1032097.615
1032155.251
1032229.756
1032300.062
1032383.894
1032448.322
1032521.95
1022316.199
1022293.145
1022287.053
1022279.015
1022281.319
1022289.52
1022303.299
1022324.623
1022352.502
1022391.077
1022430.301
1022476.49
1022528.918
1022589.368
1022656.799
1022728.756
1022805.822
1022889.062
1022978.145
1023072.214
1023170.008
1023272.81
1023382.624
1023495.753
1023613.299
1023732.776
1023859.672
1023990.507
1024123.952
1024262.063
1024402.942
1024546.171
1024692.754
1024840.511
1024989.644
1025142.637
1025298.372
1025455.578
1025614.357
1025773.639
1025935.48
1026097.227
1026259.956
1026423.259
1026587.526
1026752.59
1026916.42
1027078.834
1027240.997
1027403.526
1027564.874
1027725.065
1027885.693
1028044.964
1028202.125
1028358.168
1028512.985
1028665.402
1028816.097
1028966.007
1029114.421
1029261.351
1029405.724
1029546.907
1029686.526
1029824.213
1029959.279
1030092.392
1030222.602
1030351.013
1030477.215
1030600.712
1030722.801
1030843.152
1030960.05
1031073.793
1031184.966
1031294.396
1031401.195
1031506.765
1031608.502
1031708.031
1031781.537
1031854.761
1031925.168
1032009.235
1032083.517
1032167.866
1032234.709
1032314.18
1021735.049
1021707.359
1021696.923
1021686.974
1021690.279
1021699.379
1021713.74
1021736.91
1021762.814
1021799.983
1021843.877
1021892.573
1021946.236
1022006.686
1022074.34
1022147.557
1022226.793
1022310.641
1022401.936
1022497.87
1022599.583
1022704.565
1022816.147
1022932.403
1023054.122
1023178.67
1023307.65
1023442.282
1023580.261
1023720.992
1023866.71
1024013.752
1024165.05
1024319.971
1024475.25
1024631.725
1024791.542
1024954.361
1025119.045
1025284.033
1025450.935
1025619.406
1025788.307
1025957.398
1026126.444
1026297.128
1026467.58
1026637.03
1026806.26
1026975.126
1027143.44
1027309.676
1027475.285
1027640.847
1027805.366
1027968.92
1028130.31
1028289.35
1028446.385
1028602.746
1028757.416
1028910.254
1029061.473
1029210.206
1029356.004
1029499.851
1029641.448
1029781.307
1029917.881
1030051.192
1030183.504
1030312.873
1030439.437
1030564.922
1030687.879
1030807.299
1030924.186
1031038.436
1031149.397
1031261.2
1031363.092
1031450.826
1031523.682
1031608.287
1031688.838
1031775.921
1031854.494
1031939.879
1032010.968
1032093.625
1021105.455
1021085.254
1021072.204
1021061.505
1021061.176
1021068.868
1021086.221
1021109.539
1021137.193
1021170.025
1021213.277
1021264.087
1021319.729
1021379.752
1021447.667
1021522.494
1021602.575
1021689.896
1021782.426
1021881.091
1021984.873
1022094.566
1022206.759
1022327.253
1022451.941
1022581.954
1022715.64
1022853.375
1022995.286
1023139.916
1023290.353
1023443.391
1023597.873
1023758.022
1023920.857
1024083.822
1024248.008
1024415.788
1024586.365
1024758.231
1024930.399
1025105.384
1025280.597
1025456.514
1025632.736
1025809.974
1025986.401
1026162.28
1026338.679
1026514.932
1026690.39
1026864.821
1027037.36
1027208.639
1027379.345
1027549.649
1027718.706
1027886.007
1028050.706
1028213.336
1028374.331
1028533.669
1028691.604
1028847.805
1029001.424
1029151.455
1029299.843
1029445.989
1029588.972
1029728.866
1029867.118
1030003.26
1030136.263
1030266.666
1030394.439
1030520.212
1030643.898
1030764.286
1030880.311
1030994.61
1031086.543
1031170.757
1031258.151
1031350.95
1031436.671
1031527.826
1031610.792
1031696.268
1031775.19
1031857.29
1020420.667
1020403.084
1020392.471
1020386.216
1020387.205
1020396.52
1020412.557
1020435.509
1020465.175
1020499.545
1020540.728
1020589.659
1020645.148
1020707.793
1020775.954
1020852.804
1020934.255
1021023.859
1021119.542
1021221.362
1021328.579
1021442.588
1021558.604
1021682.277
1021809.47
1021941.486
1022079.558
1022222.075
1022368.098
1022517.503
1022671.471
1022831.28
1022991.458
1023154.84
1023324.076
1023494.797
1023666.059
1023839.518
1024015.661
1024193.611
1024372.884
1024553.972
1024736.291
1024918.561
1025101.291
1025286.172
1025470.733
1025653.924
1025837.208
1026020.885
1026203.911
1026386.062
1026567.94
1026747.077
1026924.496
1027100.843
1027276.657
1027452.142
1027625.024
1027795.543
1027964.558
1028130.465
1028294.798
1028457.748
1028618.795
1028776.557
1028931.354
1029085.268
1029235.891
1029382.874
1029527.541
1029670.006
1029809.387
1029946.277
1030080.375
1030211.72
1030341.238
1030468.913
1030591.503
1030697.686
1030787.037
1030881.38
1030978.109
1031076.654
1031166.776
1031264.744
1031350.499
1031438.879
1031525.081
1031609.982
1019691.702
1019676.167
1019660.162
1019657.178
1019659.605
1019669.222
1019683.821
1019707.826
1019738.005
1019778.134
1019821.063
1019869.93
1019925.789
1019989.904
1020061.275
1020137.787
1020222.459
1020313.293
1020412.122
1020514.752
1020625.817
1020742.983
1020865.444
1020991.287
1021122.849
1021259.378
1021400.542
1021547.155
1021698.644
1021852.994
1022011.994
1022176.269
1022342.896
1022511.948
1022684.83
1022862.356
1023041.514
1023222.468
1023406.004
1023590.37
1023775.219
1023963.129
1024154.089
1024343.721
1024533.27
1024724.518
1024917.118
1025109.559
1025300.816
1025491.321
1025682.175
1025872.19
1026061.899
1026249.95
1026436.43
1026621.035
1026802.704
1026985.779
1027168.042
1027346.917
1027523.521
1027697.081
1027868.565
1028039.409
1028207.668
1028372.649
1028534.583
1028695.65
1028854.79
1029009.889
1029161.201
1029310.397
1029457.549
1029601.634
1029742.517
1029880.669
1030015.629
1030149.884
1030271.381
1030371.463
1030472.009
1030576.913
1030678.36
1030783.756
1030879.122
1030985.014
1031072.62
1031168.775
1031260.196
1031348.342
1018924.99
1018912.085
1018892.183
1018884.218
1018882.872
1018887.913
1018900.46
1018922.543
1018957.853
1018996.303
1019043.717
1019096.418
1019158.018
1019222.383
1019296.083
1019374.555
1019462.021
1019555.919