/*--------------------------------*- C++ -*----------------------------------*\
| =========                 |                                                 |
| \\      /  F ield         | OpenFOAM: The Open Source CFD Toolbox           |
|  \\    /   O peration     | Version:  2206                                  |
|   \\  /    A nd           | Website:  www.openfoam.com                      |
|    \\/     M anipulation  |                                                 |
\*---------------------------------------------------------------------------*/
FoamFile
{
    version     2.0;
    format      ascii;
    arch        "LSB;label=32;scalar=64";
    class       surfaceScalarField;
    location    "0.01";
    object      phi;
}
// * * * * * * * * * * * * * * * * * * * * * * * * * * * * * * * * * * * * * //

dimensions      [1 0 -1 0 0 0 0];

oriented        oriented;

internalField   nonuniform List<scalar> 
37500
(
-1.044587094e-08
6.597763743e-06
-4.203472199e-08
1.975784097e-05
-9.504698253e-08
3.285088235e-05
-1.696647925e-07
4.586398292e-05
-2.661854231e-07
5.878337417e-05
-3.845576015e-07
7.159585282e-05
-5.247253519e-07
8.428860767e-05
-6.868425413e-07
9.684926508e-05
-8.709842312e-07
0.0001092659722
-1.076760676e-06
0.0001215265843
-1.304092373e-06
0.0001336193478
-1.552820948e-06
0.0001455334437
-1.822514855e-06
0.0001572581557
-2.113013728e-06
0.0001687833458
-2.424051046e-06
0.0001800985893
-2.755061079e-06
0.0001911947345
-3.105924321e-06
0.0002020632447
-3.475709553e-06
0.000212694267
-3.863559172e-06
0.0002230801645
-4.269907205e-06
0.0002332147083
-4.693469033e-06
0.0002430892778
-5.133380716e-06
0.0002526967504
-5.589387893e-06
0.0002620323271
-6.060326825e-06
0.000271089372
-6.545701553e-06
0.0002798629738
-7.044743285e-06
0.0002883487378
-7.556568244e-06
0.0002965429208
-8.080301013e-06
0.0003044405171
-8.614938994e-06
0.0003120386327
-9.159182161e-06
0.0003193345803
-9.712874612e-06
0.0003263282708
-1.027495133e-05
0.0003330160291
-1.084340029e-05
0.0003393954935
-1.141770721e-05
0.0003454685278
-1.199659831e-05
0.0003512333645
-1.257968233e-05
0.0003566919155
-1.316495461e-05
0.00036184272
-1.375105944e-05
0.0003666880724
-1.433811771e-05
0.0003712326299
-1.492476935e-05
0.0003754757405
-1.550993629e-05
0.0003794196299
-1.609131178e-05
0.0003830662266
-1.666729205e-05
0.0003864210211
-1.723755414e-05
0.0003894891625
-1.780079351e-05
0.0003922744004
-1.835474431e-05
0.000394779696
-1.889818161e-05
0.0003970119699
-1.943118799e-05
0.0003989782666
-1.995096635e-05
0.0004006832734
-2.045714555e-05
0.000402134372
-2.094621833e-05
0.0004033360342
-2.141773565e-05
0.0004042990274
-2.187071947e-05
0.0004050321118
-2.230314505e-05
0.0004055394053
-2.271242473e-05
0.000405831884
-2.309804405e-05
0.0004059207135
-2.345754638e-05
0.0004058118808
-2.378747222e-05
0.0004055161147
-2.408731108e-05
0.0004050466525
-2.435571607e-05
0.0004044144261
-2.459025365e-05
0.0004036296503
-2.47882356e-05
0.0004027021066
-2.49476335e-05
0.0004016476262
-2.50651586e-05
0.0004004756114
-2.513773086e-05
0.000399201597
-2.516115774e-05
0.0003978367747
-2.513243606e-05
0.0003963997521
-2.504775921e-05
0.0003949038545
-2.490489663e-05
0.000393369579
-2.470111812e-05
0.0003918112362
-2.44296796e-05
0.0003902426194
-2.408739161e-05
0.0003886868316
-2.366926252e-05
0.0003871615393
-2.316965651e-05
0.0003856848313
-2.2583104e-05
0.0003842812094
-2.19052264e-05
0.0003829736049
-2.112972826e-05
0.0003817825274
-2.024939322e-05
0.000380732317
-1.925801574e-05
0.0003798503716
-1.814900328e-05
0.0003791638628
-1.691505984e-05
0.0003787008024
-1.555097114e-05
0.0003784936955
-1.40523868e-05
0.0003785748411
-1.241681244e-05
0.0003789795253
-1.064472686e-05
0.0003797426697
-8.738694635e-06
0.0003809008091
-6.70570544e-06
0.00038248825
-4.557568184e-06
0.0003845423743
-2.315161259e-06
0.0003871004483
0.0003901834431
-2.070051144e-08
6.618462669e-06
-8.305410674e-08
1.982017869e-05
-1.87598733e-07
3.295542318e-05
-3.347293629e-07
4.601108041e-05
-5.248470508e-07
5.897365006e-05
-7.578871665e-07
7.182896277e-05
-1.034190482e-06
8.456504013e-05
-1.353341321e-06
9.716832002e-05
-1.715817923e-06
0.000109628396
-2.120851414e-06
0.0001219316033
-2.568384094e-06
0.0001340669067
-3.058117664e-06
0.0001460232092
-3.589215475e-06
0.0001577888875
-4.161222888e-06
0.0001693551725
-4.773583275e-06
0.0001807106623
-5.425274538e-06
0.0001918461404
-6.115759255e-06
0.0002027533799
-6.843628265e-06
0.0002134216095
-7.607543113e-06
0.0002238435331
-8.407043e-06
0.0002340136591
-9.240451682e-06
0.0002439219244
-1.010626914e-05
0.0002535615788
-1.100432113e-05
0.0002629295144
-1.193154232e-05
0.0002720156381
-1.28871422e-05
0.0002808176261
-1.38693736e-05
0.0002893296791
-1.487631174e-05
0.000297548584
-1.590640987e-05
0.0003054692167
-1.695768133e-05
0.000313088442
-1.802917408e-05
0.0003204047345
-1.911889182e-05
0.0003274168543
-2.022463531e-05
0.000334120495
-2.134254255e-05
0.0003405120591
-2.247167078e-05
0.0003465966937
-2.361074297e-05
0.0003523715437
-2.475844662e-05
0.0003578385547
-2.590983675e-05
0.0003629929265
-2.706335673e-05
0.0003678406941
-2.821790153e-05
0.0003723862526
-2.937255566e-05
0.0003766290457
-3.052321758e-05
0.0003805686559
-3.166621734e-05
0.0003842073794
-3.279917029e-05
0.0003875520983
-3.392168212e-05
0.0003906097015
-3.502952526e-05
0.0003933800436
-3.611752787e-05
0.0003958653804
-3.718605104e-05
0.0003980781912
-3.823534541e-05
0.0004000256501
-3.925897585e-05
0.0004017050061
-4.025233753e-05
0.0004031258679
-4.121386565e-05
0.0004042954184
-4.21422709e-05
0.0004052255031
-4.303472598e-05
0.0004059229018
-4.388456995e-05
0.0004063874051
-4.468854639e-05
0.0004066338116
-4.544631327e-05
0.0004066764349
-4.61523534e-05
0.000406515953
-4.680128453e-05
0.000406163138
-4.739140049e-05
0.0004056349258
-4.79215437e-05
0.0004049426869
-4.838636387e-05
0.0004040924814
-4.877902272e-05
0.0004030925925
-4.909519877e-05
0.0004019618572
-4.932994617e-05
0.0004007086731
-4.947612996e-05
0.0003993464825
-4.952876324e-05
0.0003978881504
-4.948162553e-05
0.00039635161
-4.932805707e-05
0.0003947492831
-4.905863203e-05
0.0003930991121
-4.866841904e-05
0.0003914196862
-4.814853473e-05
0.0003897214947
-4.749034815e-05
0.0003880273996
-4.668491069e-05
0.00038635495
-4.572412722e-05
0.0003847229268
-4.459490949e-05
0.0003831508761
-4.328477085e-05
0.000381662219
-4.178639364e-05
0.0003802827297
-4.008271596e-05
0.0003790270796
-3.816099649e-05
0.0003779270402
-3.600906001e-05
0.0003770102427
-3.361069145e-05
0.0003763009723
-3.095066296e-05
0.0003758326626
-2.802102501e-05
0.0003756445708
-2.480803549e-05
0.0003757662721
-2.131325712e-05
0.0003762478272
-1.753537197e-05
0.0003771231286
-1.34853268e-05
0.0003784384914
-9.183033766e-06
0.0003802404938
-4.672089614e-06
0.000382589852
0.0003855116462
-3.058451966e-08
6.648994493e-06
-1.227986482e-07
1.991234688e-05
-2.775528497e-07
3.311007676e-05
-4.951182683e-07
4.622857553e-05
-7.762959974e-07
5.925478188e-05
-1.121016633e-06
7.217353232e-05
-1.529261314e-06
8.497318188e-05
-2.001180642e-06
9.764000418e-05
-2.537235433e-06
0.0001101641926
-3.136223062e-06
0.0001225302907
-3.798097817e-06
0.0001347287297
-4.522233678e-06
0.0001467472938
-5.306878912e-06
0.0001585731524
-6.153175795e-06
0.0001702012634
-7.058805473e-06
0.0001816161779
-8.022122832e-06
0.0001928090716
-9.042943951e-06
0.0002037737359
-1.011901938e-05
0.0002144971552
-1.124905719e-05
0.0002249729928
-1.243093136e-05
0.0002351948357
-1.36608969e-05
0.0002451512535
-1.494110281e-05
0.0002548412224
-1.626739861e-05
0.0002642547004
-1.763711596e-05
0.0002733839941
-1.905042635e-05
0.0002822297924
-2.050271464e-05
0.0002907806398
-2.199057222e-05
0.0002990350795
-2.351138769e-05
0.0003069886431
-2.506337985e-05
0.0003146393972
-2.664660978e-05
0.0003219867076
-2.825708754e-05
0.0003290259656
-2.988955343e-05
0.000335751871
-3.154304223e-05
0.0003421645619
-3.321318078e-05
0.0003482660269
-3.489491681e-05
0.0003540530297
-3.658516039e-05
0.0003595285649
-3.82850085e-05
0.0003646922457
-3.998966076e-05
0.0003695443659
-4.169495085e-05
0.0003740905024
-4.33965352e-05
0.0003783294218
-4.509344021e-05
0.0003822636098
-4.678098538e-05
0.0003858926863
-4.845365374e-05
0.0003892222006
-5.010969951e-05
0.000392263409
-5.174313294e-05
0.0003950108264
-5.335055778e-05
0.0003974701264
-5.49310713e-05
0.0003996563902
-5.648054068e-05
0.0004015724536
-5.799140536e-05
0.0004032131373
-5.94585707e-05
0.0004045907332
-6.088169698e-05
0.0004057163952
-6.22542964e-05
0.0004065958375
-6.356906789e-05
0.0004072356021
-6.482151239e-05
0.0004076379332
-6.60118941e-05
0.0004078225586
-6.71368734e-05
0.0004077995475
-6.818699899e-05
0.0004075640852
-6.915088743e-05
0.0004071248441
-7.002490574e-05
0.0004065067686
-7.080958091e-05
0.0004057252155
-7.150311767e-05
0.0004047833637
-7.209177655e-05
0.0004036787828
-7.256809692e-05
0.0004024359622
-7.292861923e-05
0.0004010668521
-7.31596792e-05
0.0003995756249
-7.325673174e-05
0.0003979836543
-7.321201958e-05
0.0003963057376
-7.300874867e-05
0.0003945447068
-7.263563415e-05
0.0003927247542
-7.208829921e-05
0.000390871152
-7.135618386e-05
0.0003889882594
-7.042298518e-05
0.0003870933342
-6.927901403e-05
0.0003852102927
-6.790927199e-05
0.0003833526185
-6.629888397e-05
0.000381539956
-6.442472465e-05
0.000379787694
-6.227491319e-05
0.0003781324657
-5.982768017e-05
0.0003765791978
-5.706436549e-05
0.0003751632535
-5.39592233e-05
0.0003739047413
-5.048897216e-05
0.0003728307208
-4.662276635e-05
0.0003719668867
-4.234521822e-05
0.0003713677689
-3.762712136e-05
0.0003710494069
-3.245301129e-05
0.0003710751184
-2.681437069e-05
0.0003714858257
-2.071112143e-05
0.0003723364182
-1.41705437e-05
0.000373700816
-7.246728703e-06
0.0003756668704
0.0003782656401
-4.023246413e-08
6.689207759e-06
-1.616897296e-07
2.003372661e-05
-3.652689599e-07
3.331355705e-05
-6.515073162e-07
4.651458613e-05
-1.021422318e-06
5.96243091e-05
-1.474949865e-06
7.262682474e-05
-2.012217581e-06
8.550995316e-05
-2.633567202e-06
9.826106453e-05
-3.338636916e-06
0.0001108687263
-4.126458985e-06
0.0001233173739
-4.997830427e-06
0.0001355994964
-5.950954911e-06
0.0001476997536
-6.984377884e-06
0.0001596059753
-8.097709573e-06
0.0001713141041
-9.288419759e-06
0.0001828062448
-1.055528309e-05
0.0001940752454
-1.189691772e-05
0.000205114676
-1.330983697e-05
0.0002159093463
-1.479606799e-05
0.0002264583589
-1.635060799e-05
0.0002367481263
-1.796839189e-05
0.0002467676299
-1.965233422e-05
0.0002565245576
-2.13942478e-05
0.000265995627
-2.319665094e-05
0.0002751858539
-2.505314746e-05
0.0002840855437
-2.695988777e-05
0.0002926863281
-2.891571097e-05
0.0003009896332
-3.091735202e-05
0.0003089892747
-3.295969759e-05
0.0003166807687
-3.503939256e-05
0.0003240655842
-3.715519436e-05
0.0003311409966
-3.929955941e-05
0.000337895499
-4.147205345e-05
0.0003443366238
-4.366737931e-05
0.0003504607241
-4.58783074e-05
0.0003562640732
-4.809927789e-05
0.0003617495033
-5.033067715e-05
0.0003669241106
-5.256698477e-05
0.0003717805403
-5.480579381e-05
0.0003763287375
-5.703911982e-05
0.0003805616562
-5.926643083e-05
0.0003844893672
-6.148254787e-05
0.0003881067048
-6.368330477e-05
0.0003914208195
-6.58578521e-05
0.0003944355312
-6.799641169e-05
0.0003971467647
-7.010808268e-05
0.0003995791725
-7.218671584e-05
0.000401732349
-7.421802518e-05
0.0004036010849
-7.620251511e-05
0.0004051950187
-7.813268652e-05
0.0004065184948
-7.999970292e-05
0.0004075812376
-8.180605264e-05
0.0004084001551
-8.353762077e-05
0.0004089651902
-8.518729581e-05
0.0004092858122
-8.675567029e-05
0.000409389555
-8.823081538e-05
0.0004092731819
-8.960978207e-05
0.0004089411192
-9.089025461e-05
0.0004084032879
-9.206423883e-05
0.0004076784567
-9.31099179e-05
0.0004067684619
-9.402917557e-05
0.0004057000636
-9.481854573e-05
0.0004044653669
-9.546507063e-05
0.00040307988
-9.595900207e-05
0.0004015584707
-9.629156884e-05
0.0003999055855
-9.644924201e-05
0.0003981389445
-9.641741471e-05
0.0003962714389
-9.61905204e-05
0.0003943158433
-9.576123643e-05
0.0003922939821
-9.510472162e-05
0.0003902133636
-9.420692667e-05
0.0003880892621
-9.305317548e-05
0.0003859387102
-9.162551058e-05
0.0003837818636
-8.991114943e-05
0.0003816375903
-8.788996299e-05
0.0003795182585
-8.553721977e-05
0.0003774346132
-8.282795712e-05
0.0003754230544
-7.974138418e-05
0.0003734927892
-7.624807127e-05
0.0003716703278
-7.230448382e-05
0.000369961957
-6.788353579e-05
0.0003684109629
-6.293989269e-05
0.0003670248284
-5.743263563e-05
0.000365862581
-5.132041199e-05
0.0003649394008
-4.454853796e-05
0.0003643056106
-3.708439104e-05
0.000364023967
-2.888381255e-05
0.0003641379503
-1.99332678e-05
0.0003647520588
-1.034634492e-05
0.0003660815267
0.0003679208431
-4.969464444e-08
6.738866681e-06
-1.994510864e-07
2.01833714e-05
-4.507308952e-07
3.356452792e-05
-8.040946651e-07
4.686749039e-05
-1.261114558e-06
6.008076885e-05
-1.820978798e-06
7.318604466e-05
-2.484852647e-06
8.617325768e-05
-3.251620459e-06
9.90269571e-05
-4.121445302e-06
0.0001117375774
-5.094069524e-06
0.000124288928
-6.171196291e-06
0.0001366755168
-7.346876647e-06
0.0001488741192
-8.622626182e-06
0.0001608806761
-9.994932508e-06
0.0001726850908
-1.14646042e-05
0.000184274946
-1.302753273e-05
0.0001956372078
-1.468328607e-05
0.0002067695731
-1.642787513e-05
0.0002176531195
-1.826186985e-05
0.0002282920081
-2.017978022e-05
0.0002386650277
-2.217765723e-05
0.000248764527
-2.425687229e-05
0.0002586031735
-2.640823935e-05
0.000268145805
-2.863452954e-05
0.0002774115257
-3.092331827e-05
0.0002863735006
-3.327400226e-05
0.0002950362377
-3.568460027e-05
0.000303399261
-3.81496913e-05
0.0003114539682
-4.066491314e-05
0.0003191956644
-4.322923017e-05
0.0003266292824
-4.583522543e-05
0.0003337463406
-4.847941922e-05
0.0003405388431
-5.115558721e-05
0.0003470127064
-5.385791635e-05
0.0003531629368
-5.658148959e-05
0.0003589872775
-5.932244838e-05
0.0003644899437
-6.207337138e-05
0.0003696747395
-6.483092327e-05
0.0003745380995
-6.759364893e-05
0.000379090915
-7.035395807e-05
0.000383321547
-7.309898651e-05
0.0003872340373
-7.582301607e-05
0.0003908296753
-7.852104754e-05
0.0003941170393
-8.119696546e-05
0.0003971090394
-8.384080723e-05
0.0003997879133
-8.644605362e-05
0.0004021818311
-8.899704705e-05
0.0004042809247
-9.149649492e-05
0.0004060980308
-9.394116672e-05
0.0004076369108
-9.63266238e-05
0.0004089011765
-9.863727679e-05
0.0004098898459
-0.0001008622878
0.000410623976
-0.0001029941711
0.0004110959889
-0.0001050340251
0.0004113249156
-0.0001069729214
0.0004113271591
-0.0001087993742
0.0004110982839
-0.0001105031407
0.0004106436224
-0.0001120911368
0.0004099903165
-0.0001135592169
0.0004091449205
-0.0001148861039
0.0004080935199
-0.0001160554496
0.0004068675131
-0.0001170570126
0.0004054646058
-0.0001178890547
0.0004039093267
-0.0001185305048
0.000402197037
-0.0001189706973
0.0004003427225
-0.0001192059773
0.0003983713814
-0.0001192257457
0.000396288647
-0.0001190208105
0.0003941087494
-0.0001185723407
0.0003918433283
-0.000117852642
0.0003894919652
-0.0001168394124
0.0003870747377
-0.000115523518
0.0003846216662
-0.0001138824486
0.0003821401637
-0.0001118989925
0.0003796534752
-0.0001095511024
0.0003771699204
-0.000106818659
0.0003747019706
-0.0001036668016
0.0003722715966
-0.0001000583924
0.0003698855328
-9.596853643e-05
0.0003675819951
-9.134804606e-05
0.0003653431388
-8.614654929e-05
0.0003632113758
-8.031387474e-05
0.0003611943693
-7.377928314e-05
0.0003593302067
-6.646301402e-05
0.0003576252621
-5.827177304e-05
0.0003561165089
-4.911387757e-05
0.0003548681098
-3.889819817e-05
0.0003539242972
-2.729334353e-05
0.0003531491025
-1.480394315e-05
0.0003535938946
0.0003531187274
-5.836653128e-08
6.797166156e-06
-2.347896248e-07
2.035961672e-05
-5.313813608e-07
3.386082667e-05
-9.482765459e-07
4.728400106e-05
-1.487520716e-06
6.061950135e-05
-2.147962e-06
7.384584932e-05
-2.93086514e-06
8.695547947e-05
-3.835201879e-06
9.993038629e-05
-4.86192751e-06
0.0001127631792
-6.010341918e-06
0.0001254361347
-7.280206826e-06
0.0001379440976
-8.667095845e-06
0.0001502594567
-1.017169015e-05
0.0001623837929
-1.179146319e-05
0.0001743032492
-1.352516874e-05
0.0001860071995
-1.53703697e-05
0.0001974813068
-1.732534597e-05
0.0002087235788
-1.93830785e-05
0.0002197101104
-2.15455935e-05
0.0002304539678
-2.38086533e-05
0.0002409278703
-2.616688573e-05
0.0002511216457
-2.861759686e-05
0.0002610525436
-3.115954904e-05
0.000270686942
-3.37835864e-05
0.0002800341183
-3.648201762e-05
0.0002890703517
-3.925938941e-05
0.0002978126787
-4.210865084e-05
0.0003062478689
-4.501897716e-05
0.000314363683
-4.798231862e-05
0.000322158623
-5.100324093e-05
0.0003296497849
-5.407738929e-05
0.0003368200266
-5.719195332e-05
0.0003436533329
-6.034355871e-05
0.0003501638932
-6.352955604e-05
0.0003563487733
-6.673570421e-05
0.0003621926237
-6.996023848e-05
0.0003677136572
-7.320724339e-05
0.0003729210879
-7.646551413e-05
0.0003777960059
-7.971985564e-05
0.0003823453247
-8.296935116e-05
0.0003865706775
-8.619820126e-05
0.000390461997
-8.940654578e-05
0.0003940374552
-9.258681288e-05
0.0003972963285
-9.573709111e-05
0.0004002582478
-9.884511354e-05
0.000402894885
-0.0001019186153
0.0004052538392
-0.0001049390253
0.000407298608
-0.0001079021064
0.0004090587113
-0.0001107896521
0.0004105226216
-0.000113585246
0.000411694427
-0.0001163004732
0.0004126025134
-0.0001189373332
0.0004132586538
-0.0001214652812
0.0004136222323
-0.00012388658
0.0004137450352
-0.000126192342
0.0004136322093
-0.0001283718616
0.0004132771405
-0.0001304180112
0.0004126888347
-0.0001323184709
0.0004118897345
-0.0001340654058
0.0004108903589
-0.0001356526476
0.0004096794592
-0.0001370517606
0.0004082651074
-0.0001382626563
0.0004066735638
-0.0001392836148
0.0004049277492
-0.0001400889447
0.000402999943
-0.000140662507
0.0004009140062
-0.0001409999549
0.0003987066708
-0.0001410985667
0.0003963854624
-0.0001409397324
0.000393948243
-0.0001404916155
0.0003913935904
-0.0001397372162
0.0003887362751
-0.0001386615068
0.0003859984414
-0.0001372524581
0.0003832125381
-0.0001354880026
0.000380375389
-0.0001333289665
0.0003774943477
-0.000130752435
0.0003745933997
-0.0001277448426
0.000371694472
-0.0001242647973
0.0003687924731
-0.000120278982
0.0003659011652
-0.0001157515114
0.0003630562003
-0.0001106274459
0.0003602210198
-0.0001048555105
0.0003574416661
-9.837516064e-05
0.0003547161253
-9.111734514e-05
0.0003520744875
-8.297222615e-05
0.0003494819941
-7.375522357e-05
0.0003469009392
-6.320554219e-05
0.0003443195492
-5.152876733e-05
0.0003422484648
-3.706140304e-05
0.0003386825079
-2.180364468e-05
0.0003383368138
0.0003313154315
-5.513121862e-08
6.852178716e-06
-2.224186306e-07
2.052669112e-05
-5.049284936e-07
3.414318007e-05
-9.02653598e-07
4.768132782e-05
-1.416914361e-06
6.113326917e-05
-2.048230458e-06
7.447642007e-05
-2.797647918e-06
8.770416066e-05
-3.666118856e-06
0.0001007982928
-4.650986874e-06
0.0001137471407
-5.756538388e-06
0.0001265408076
-6.98021284e-06
0.000139166524
-8.319729794e-06
0.0001515978628
-9.771992043e-06
0.000163834672
-1.133850423e-05
0.0001758683707
-1.302069955e-05
0.0001876881788
-1.481531561e-05
0.0001992748062
-1.671737408e-05
0.0002106242629
-1.872063975e-05
0.0002217121959
-2.082841723e-05
0.0002325604515
-2.303622464e-05
0.0002431348787
-2.534288291e-05
0.0002534277618
-2.774491284e-05
0.000263453432
-3.023535047e-05
0.000273176407
-3.280479465e-05
0.000282602104
-3.546022991e-05
0.0002917243135
-3.819812233e-05
0.0003005492687
-4.10037779e-05
0.0003090525905
-4.386894123e-05
0.0003172275766
-4.679331324e-05
0.0003250815394
-4.978432622e-05
0.0003326398431
-5.28290493e-05
0.0003398642358
-5.590964304e-05
0.0003467335074
-5.903155361e-05
0.0003532851333
-6.218474192e-05
0.0003595008628
-6.536827578e-05
0.0003653753544
-6.858132905e-05
0.0003709264149
-7.180968412e-05
0.0003761488606
-7.504191631e-05
0.0003810269595
-7.827859864e-05
0.0003855809421
-8.151184837e-05
0.0003898037131
-8.472977694e-05
0.0003936798432
-8.793293869e-05
0.0003972406632
-9.110254318e-05
0.0004004651449
-9.425352218e-05
0.0004034081046
-9.737136704e-05
0.0004060114388
-0.0001004562561
0.0004083379868
-0.0001034901575
0.0004103317919
-0.0001064576184
0.0004120243756
-0.0001093474335
0.0004134102172
-0.0001121563694
0.000414501259
-0.0001148929083
0.0004153369241
-0.0001175316573
0.0004158947408
-0.000120064108
0.0004161519599
-0.0001224889007
0.000416167264
-0.0001247897172
0.0004159307363
-0.0001269589603
0.0004154448646
-0.000129007239
0.0004147354097
-0.0001309177363
0.0004137987638
-0.0001326497496
0.0004126213019
-0.0001341848969
0.0004112132308
-0.0001355299636
0.0004096084534
-0.0001367033123
0.0004078456493
-0.0001376820906
0.0004059048647
-0.0001384402632
0.0004037560601
-0.0001389681097
0.0004014397405
-0.0001392378476
0.0003989745389
-0.0001392369352
0.0003963827715
-0.0001389520261
0.0003936616688
-0.0001383754932
0.0003908165162
-0.0001375105455
0.0003878712759
-0.0001363100569
0.0003847980703
-0.0001347267539
0.0003816293879
-0.0001327603449
0.0003784090688
-0.0001303987054
0.0003751330057
-0.000127589187
0.0003717846543
-0.000124311374
0.0003684175025
-0.0001205418043
0.0003650239393
-0.0001162444896
0.0003616051547
-0.0001113867153
0.0003582000427
-0.0001059287208
0.0003547653227
-9.982146964e-05
0.0003513366753
-9.29929327e-05
0.0003478894585
-8.537444422e-05
0.0003444574313
-7.692671482e-05
0.0003410353163
-6.762939634e-05
0.000337604321
-5.689728255e-05
0.0003335881434
-4.554129786e-05
0.0003308928864
-3.180103384e-05
0.0003249423604
-1.778043926e-05
0.0003243158364
0.0003135344947
-4.575452351e-08
6.897939845e-06
-1.842953723e-07
2.066512139e-05
-4.174980302e-07
3.437625982e-05
-7.491548867e-07
4.801301172e-05
-1.178531965e-06
6.15624144e-05
-1.706315467e-06
7.500394579e-05
-2.33808582e-06
8.833566107e-05
-3.070385084e-06
0.0001015300345
-3.899418104e-06
0.0001145754946
-4.836767154e-06
0.000127477826
-5.878549418e-06
0.0001402078927
-7.020933775e-06
0.0001527395131
-8.26365431e-06
0.000165076362
-9.610890139e-06
0.0001772146693
-1.10619203e-05
0.0001891382775
-1.26096849e-05
0.0002008215806
-1.425495258e-05
0.0002122686164
-1.599332118e-05
0.0002234491849
-1.782260029e-05
0.0002343881012
-1.974786835e-05
0.0002450588311
-2.176702227e-05
0.0002554459538
-2.386809082e-05
0.0002655531764
-2.605469373e-05
0.000275361746
-2.832225514e-05
0.0002848688138
-3.066836504e-05
0.0002940697592
-3.308717907e-05
0.0003029667238
-3.556600575e-05
0.0003115297891
-3.811155448e-05
0.0003197720297
-4.07223378e-05
0.0003276916071
-4.338800587e-05
0.0003353047758
-4.609808959e-05
0.0003425731878
-4.885508942e-05
0.0003494892807
-5.165771999e-05
0.000356086384
-5.448702914e-05
0.0003623289159
-5.735638907e-05
0.0003682440102
-6.025382884e-05
0.0003738232876
-6.316755803e-05
0.0003790614367
-6.609971049e-05
0.0003839581876
-6.904483768e-05
0.0003885247755
-7.197714847e-05
0.0003927347291
-7.489079041e-05
0.000396592656
-7.778397265e-05
0.0004001336704
-8.067470558e-05
0.0004033556321
-8.358270748e-05
0.000406316203
-8.645021742e-05
0.0004088787875
-8.927797612e-05
0.000411165084
-9.20626303e-05
0.0004131156691
-9.478108913e-05
0.0004147407474
-9.743484952e-05
0.0004160615422
-0.0001000268107
0.0004170913401
-0.0001025350686
0.0004178428538
-0.0001049560561
0.0004183126646
-0.0001072987741
0.0004184909564
-0.0001095483145
0.0004184130292
-0.0001116827971
0.0004180622116
-0.0001136904975
0.0004174502315
-0.0001155596384
0.0004166029569
-0.0001172793648
0.0004155160595
-0.0001188466398
0.0004141853938
-0.0001202523627
0.000412616402
-0.0001214928503
0.0004108473735
-0.0001225395872
0.0004088907648
-0.0001233632796
0.0004067267901
-0.0001239839819
0.0004043747303
-0.0001244169501
0.0004018701949
-0.0001246153866
0.0003991706211
-0.0001245340711
0.0003962994254
-0.0001241636449
0.0003932900463
-0.0001234976859
0.0003901503758
-0.0001225210507
0.0003868940407
-0.0001212241443
0.0003835006238
-0.0001195665539
0.0003799717237
-0.000117503678
0.0003763467167
-0.0001150457218
0.0003726755993
-0.0001121754352
0.000368914822
-0.0001088317092
0.0003650747356
-0.0001049954255
0.0003611887038
-0.0001006367547
0.0003572479563
-9.571890202e-05
0.0003532839196
-9.025733294e-05
0.0003493052731
-8.421245642e-05
0.000345293501
-7.754878071e-05
0.0003412274375
-7.020603821e-05
0.0003371159105
-6.208964926e-05
0.0003329200909
-5.348411816e-05
0.0003290000639
-4.38482028e-05
0.0003239533305
-3.380320441e-05
0.0003208484936
-2.282821458e-05
0.0003139679031
-1.140801817e-05
0.0003128963686
0.0003021274573
-3.652055259e-08
6.934462428e-06
-1.461445301e-07
2.077484692e-05
-3.286069241e-07
3.455855239e-05
-5.9429463e-07
4.827867533e-05
-9.400776535e-07
6.190823357e-05
-1.364128468e-06
7.5427859e-05
-1.875139302e-06
8.884652813e-05
-2.468595607e-06
0.0001021231537
-3.142030812e-06
0.0001152481453
-3.909875045e-06
0.0001282454545
-4.767512218e-06
0.0001410654666
-5.709643791e-06
0.0001536814281
-6.742306338e-06
0.0001661089
-7.86635276e-06
0.0001783380319
-9.075508953e-06
0.0001903465529
-1.037135854e-05
0.0002021163817
-1.175331012e-05
0.0002136491956
-1.321578852e-05
0.000224910566
-1.47595702e-05
0.0002359307022
-1.640153777e-05
0.0002466999742
-1.811766741e-05
0.0002571612514
-1.991487023e-05
0.0002673491339
-2.178973099e-05
0.0002772355976
-2.372723789e-05
0.0002868051978
-2.574934253e-05
0.0002960912567
-2.78394988e-05
0.000305055964
-2.99865128e-05
0.0003136754381
-3.220649634e-05
0.0003219913915
-3.447838145e-05
0.0003299628007
-3.680281202e-05
0.0003376284165
-3.917811733e-05
0.0003449475585
-4.160121106e-05
0.0003519112123
-4.40636985e-05
0.000358548566
-4.656437283e-05
0.0003648287081
-4.910322302e-05
0.0003707817658
-5.166699299e-05
0.0003763861204
-5.426167052e-05
0.0003816558584
-5.687822947e-05
0.0003865741528
-5.950166541e-05
0.0003911477391
-6.211673196e-05
0.0003953494692
-6.473374012e-05
0.0003992089829
-6.735197226e-05
0.0004027515806
-6.997710695e-05
0.0004059808428
-7.260180203e-05
0.000408940246
-7.518660754e-05
0.0004114629303
-7.775126036e-05
0.0004137287629
-8.02685937e-05
0.0004156323044
-8.272526831e-05
0.000417197208
-8.515159221e-05
0.0004184868957
-8.75152307e-05
0.000419453074
-8.98126798e-05
0.0004201375422
-9.20483433e-05
0.000420546113
-9.419406155e-05
0.0004206337154
-9.625350011e-05
0.0004204679026
-9.822271389e-05
0.0004200271088
-0.0001001034704
0.0004193272837
-0.0001018517737
0.0004183474411
-0.0001034501309
0.0004171114761
-0.0001049100193
0.0004156428825
-0.0001062341442
0.0004139378379
-0.0001073980528
0.0004120084233
-0.0001083862106
0.0004098760878
-0.0001092073749
0.0004075459571
-0.0001098301942
0.0004049962537
-0.0001102276944
0.0004022662419
-0.0001104141384
0.0003993544669
-0.0001103662489
0.0003962487784
-0.0001100303028
0.0003929521269
-0.0001093933582
0.0003895119007
-0.0001084570659
0.0003859570594
-0.0001072348271
0.0003822773106
-0.0001056937521
0.0003784296413
-0.0001037594476
0.0003744126209
-0.0001014066114
0.0003703228439
-9.865613429e-05
0.0003661645058
-9.549179894e-05
0.0003619111357
-9.188107138e-05
0.0003575792213
-8.779576713e-05
0.0003531641992
-8.315981405e-05
0.000348649592
-7.798648999e-05
0.000344133213
-7.228032453e-05
0.0003395890166
-6.607740886e-05
0.0003350264022
-5.935727675e-05
0.0003303973336
-5.197749699e-05
0.0003255419619
-4.421342452e-05
0.0003212375469
-3.589600144e-05
0.000315637685
-2.704151472e-05
0.0003119962195
-1.797915223e-05
0.0003049084934
-8.318628806e-06
0.0003032390733
0.0002938115422
-2.664832898e-08
6.961148766e-06
-1.052857485e-07
2.085345952e-05
-2.369922277e-07
3.468997126e-05
-4.337611146e-07
4.847546738e-05
-6.940634932e-07
6.216828697e-05
-1.010117439e-06
7.574356393e-05
-1.393286721e-06
8.922942273e-05
-1.849303297e-06
0.000102579282
-2.360768982e-06
0.0001157591898
-2.952193285e-06
0.000128836396
-3.614744893e-06
0.0001417275026
-4.349663574e-06
0.0001544162047
-5.164394882e-06
0.0001669234261
-6.045467987e-06
0.0001792186171
-7.001699437e-06
0.0001913020631
-8.032310455e-06
0.0002031457983
-9.137108008e-06
0.0002147528143
-1.031016495e-05
0.0002260822806
-1.156487029e-05
0.0002371833953
-1.289231504e-05
0.0002480260844
-1.427925894e-05
0.0002585472597
-1.575078024e-05
0.0002688193757
-1.728722569e-05
0.0002787707007
-1.889005995e-05
0.0002884064415
-2.056339481e-05
0.0002977639505
-2.230418259e-05
0.0003067966342
-2.409561838e-05
0.0003154665042
-2.595663276e-05
0.0003238513635
-2.786168727e-05
0.0003318665472
-2.982323372e-05
0.000339589236
-3.183126488e-05
0.0003469552937
-3.389144311e-05
0.0003539713493
-3.598238198e-05
0.0003606386461
-3.812146903e-05
0.000366967321
-4.029546103e-05
0.0003729553722
-4.250445475e-05
0.0003785939506
-4.474187582e-05
0.0003838917084
-4.700620217e-05
0.0003888374603
-4.927861806e-05
0.0003934188828
-5.156540803e-05
0.0003976357623
-5.386253347e-05
0.0004015063364
-5.618228496e-05
0.000405070722
-5.850880379e-05
0.0004083072684
-6.082143348e-05
0.0004112522739
-6.309313361e-05
0.0004137340351
-6.536006834e-05
0.0004159953798
-6.75945902e-05
0.0004178646579
-6.980131592e-05
0.0004194020695
-7.196872882e-05
0.0004206528193
-7.408631036e-05
0.0004215687728
-7.617156063e-05
0.0004222221795
-7.81913902e-05
0.0004225646963
-8.015696856e-05
0.0004225974579
-8.204266365e-05
0.0004223507518
-8.385646e-05
0.0004218375302
-8.558244836e-05
0.0004210497988
-8.720386512e-05
0.0004199645623
-8.872726552e-05
0.0004186313402
-9.013036514e-05
0.0004170429867
-9.141788133e-05
0.0004152223565
-9.257577647e-05
0.0004131636464
-9.357406678e-05
0.0004108716533
-9.439332167e-05
0.0004083624196
-9.503665324e-05
0.0004056372596
-9.547901161e-05
0.000402707278
-9.572533395e-05
0.0003996001237
-9.578675655e-05
0.0003963077454
-9.560860934e-05
0.0003927709307
-9.51576045e-05
0.0003890587613
-9.44322878e-05
0.000385230289
-9.340179306e-05
0.0003812454899
-9.206529124e-05
0.0003770908717
-9.04132826e-05
0.0003727586608
-8.839037522e-05
0.0003682991598
-8.598098621e-05
0.0003637544746
-8.315461124e-05
0.0003590850601
-7.990642989e-05
0.0003543323803
-7.624872889e-05
0.0003495075639
-7.214915194e-05
0.000344551274
-6.754166909e-05
0.0003395279721
-6.240894771e-05
0.000334458845
-5.679881447e-05