/*--------------------------------*- C++ -*----------------------------------*\
| =========                 |                                                 |
| \\      /  F ield         | OpenFOAM: The Open Source CFD Toolbox           |
|  \\    /   O peration     | Version:  2206                                  |
|   \\  /    A nd           | Website:  www.openfoam.com                      |
|    \\/     M anipulation  |                                                 |
\*---------------------------------------------------------------------------*/
FoamFile
{
    version     2.0;
    format      ascii;
    arch        "LSB;label=32;scalar=64";
    class       volScalarField::Internal;
    location    "0.01";
    object      reactingCloud1:hsCoeff;
}
// * * * * * * * * * * * * * * * * * * * * * * * * * * * * * * * * * * * * * //

dimensions      [1 2 -2 -1 0 0 0];

value           nonuniform List<scalar> 
18900
(
4.098489544e-12
1.426234676e-11
1.857596246e-11
3.190462127e-11
3.760263373e-11
4.564095223e-11
7.548024752e-11
5.212152662e-11
5.530493344e-11
8.183201107e-11
8.869821736e-11
9.662001451e-11
1.145199754e-10
1.398205246e-10
1.19244693e-10
1.23144043e-10
1.271101519e-10
1.407121023e-10
1.693254799e-10
1.367919469e-10
1.674914409e-10
1.644462135e-10
1.882230803e-10
2.148688364e-10
2.335931366e-10
2.198946501e-10
2.378959362e-10
2.319277973e-10
2.393098114e-10
2.627871637e-10
2.946816304e-10
2.535129613e-10
2.930447613e-10
3.06490042e-10
2.936505623e-10
3.035336864e-10
2.965349955e-10
3.508695853e-10
3.625072837e-10
3.965108519e-10
3.620823649e-10
3.620207245e-10
4.126746584e-10
3.864326244e-10
4.35255068e-10
3.980243663e-10
4.313676612e-10
3.952494679e-10
4.891147583e-10
4.245415587e-10
4.555590475e-10
4.605216994e-10
4.986764493e-10
4.848280248e-10
4.653235941e-10
5.332296791e-10
4.905359535e-10
5.30691648e-10
5.456308189e-10
5.629176155e-10
5.230094624e-10
5.89387605e-10
5.889876282e-10
6.115869251e-10
5.624254977e-10
6.186735562e-10
5.976094053e-10
6.313846305e-10
6.716504597e-10
5.712270267e-10
6.141904318e-10
6.264858519e-10
6.423039359e-10
6.296568863e-10
6.403014476e-10
7.045888645e-10
7.276190726e-10
6.720489616e-10
7.049007832e-10
6.663990477e-10
6.938817901e-10
7.607206316e-10
7.467564021e-10
7.157533681e-10
6.981000893e-10
7.396835528e-10
6.919174331e-10
7.067426274e-10
7.565074842e-10
7.922338092e-10
3.805525679e-12
1.526010893e-11
2.35856438e-11
2.979036089e-11
5.053530635e-11
6.230958308e-11
7.860776962e-11
7.87072991e-11
7.2360252e-11
8.512662819e-11
1.059551333e-10
1.220084882e-10
9.601144784e-11
1.207774119e-10
1.540251992e-10
1.637145344e-10
1.721569576e-10
1.926845834e-10
2.142690722e-10
2.245985661e-10
2.376884359e-10
2.573288958e-10
2.581844111e-10
2.717970395e-10
3.062452845e-10
3.074814618e-10
3.252538186e-10
3.463271893e-10
3.561101168e-10
3.500270741e-10
3.707325193e-10
3.846523132e-10
3.769740687e-10
4.087317418e-10
4.637617665e-10
4.338485347e-10
4.403059047e-10
4.877061381e-10
4.906105267e-10
4.811841918e-10
4.886148478e-10
5.179118936e-10
5.003574843e-10
5.238707983e-10
4.930743198e-10
5.665197218e-10
5.974660634e-10
6.031566997e-10
5.78540146e-10
6.406024981e-10
6.203864337e-10
6.439758794e-10
7.078834353e-10
6.653852239e-10
6.604746604e-10
6.814425565e-10
7.105942117e-10
7.494345601e-10
7.558005127e-10
7.991945546e-10
7.873217128e-10
7.859361061e-10
8.213373182e-10
7.906213137e-10
8.63645288e-10
8.008229525e-10
8.244308259e-10
8.252784264e-10
8.336695763e-10
8.467428957e-10
8.644322379e-10
8.419063925e-10
8.891086658e-10
9.004194265e-10
8.562509326e-10
8.791401826e-10
9.051895587e-10
9.207239773e-10
9.77326826e-10
9.057645136e-10
9.499289861e-10
9.844361089e-10
9.708846338e-10
9.850459113e-10
9.301024912e-10
9.49133035e-10
9.407549487e-10
9.595168709e-10
9.622122424e-10
9.37578693e-10
1.238746974e-12
1.790558077e-11
2.827716827e-11
4.112674905e-11
4.188815016e-11
5.396694729e-11
6.617777999e-11
9.573919398e-11
8.907256286e-11
9.753028047e-11
1.266458505e-10
1.516576012e-10
1.555163261e-10
1.70759561e-10
1.923872081e-10
1.97163666e-10
1.956552892e-10
2.223011961e-10
2.360437973e-10
2.286177997e-10
2.56600948e-10
3.242903463e-10
2.705401254e-10
3.069052895e-10
3.206440873e-10
3.158381141e-10
3.077644622e-10
3.530420531e-10
4.329218316e-10
4.135655516e-10
3.714580896e-10
4.024548538e-10
4.733374356e-10
4.144818229e-10
4.871053773e-10
4.763378928e-10
5.449469025e-10
5.004062333e-10
5.110072828e-10
5.601648824e-10
5.821900848e-10
5.658598211e-10
6.108405817e-10
5.954041616e-10
6.054767455e-10
5.828335852e-10
6.778840755e-10
6.395067196e-10
6.522206239e-10
6.688729874e-10
7.314605981e-10
6.912264235e-10
7.114555266e-10
7.689809766e-10
7.738919478e-10
7.869023738e-10
7.755656704e-10
8.55729284e-10
8.195731127e-10
8.655229763e-10
8.274180647e-10
8.548109924e-10
8.868817417e-10
8.828019011e-10
9.159523536e-10
1.010640168e-09
9.235343155e-10
9.052434492e-10
9.145143368e-10
9.754510337e-10
9.296227795e-10
9.813023636e-10
9.852141154e-10
1.008948838e-09
9.8781352e-10
9.642781112e-10
1.000963613e-09
1.014121283e-09
1.065872122e-09
1.0515211e-09
1.093070842e-09
1.03965782e-09
1.027782848e-09
1.026501314e-09
1.053599219e-09
1.052596959e-09
1.071659239e-09
9.826539852e-10
1.097510918e-09
1.076937574e-09
8.129812293e-12
1.744940544e-11
2.427064594e-11
3.988973588e-11
3.433822251e-11
7.132511959e-11
7.318693957e-11
1.169841723e-10
1.078108282e-10
1.149303191e-10
1.209804014e-10
1.223951423e-10
1.740442341e-10
1.55352831e-10
1.650071819e-10
1.813694358e-10
1.969777107e-10
2.315921055e-10
2.449428556e-10
2.266931941e-10
2.318464318e-10
2.856509855e-10
3.121448789e-10
3.60431273e-10
3.591834647e-10
3.833786239e-10
3.582265098e-10
4.04492067e-10
4.086706494e-10
4.009720891e-10
4.572995051e-10
4.423370093e-10
4.93992219e-10
4.798224088e-10
4.911140718e-10
5.151749263e-10
5.601678986e-10
5.817368942e-10
5.527980559e-10
5.577134554e-10
6.201394583e-10
6.650897699e-10
6.45945274e-10
5.807963516e-10
7.051985296e-10
7.853735525e-10
6.920047507e-10
6.724066272e-10
7.213737991e-10
7.272869192e-10
7.428738381e-10
7.595776225e-10
7.327583831e-10
8.661238018e-10
7.970673286e-10
8.322143008e-10
8.376103887e-10
8.858406295e-10
8.133777784e-10
8.216432242e-10
9.078971205e-10
9.544172265e-10
8.673290314e-10
9.949863511e-10
9.262186242e-10
1.028422705e-09
9.38979488e-10
1.000692375e-09
9.94986727e-10
1.005857862e-09
1.039946904e-09
1.024305119e-09
1.063538214e-09
9.905603115e-10
1.099982681e-09
1.026155861e-09
1.103849269e-09
1.088999956e-09
1.043852116e-09
1.065937838e-09
1.129146145e-09
1.096086712e-09
1.160635414e-09
1.005560888e-09
1.079288855e-09
1.103372865e-09
1.098717545e-09
1.116459374e-09
1.109767039e-09
1.129611819e-09
4.371295041e-12
1.587271422e-11
2.483322026e-11
3.532431487e-11
5.168196967e-11
5.375188119e-11
9.085443976e-11
6.540331657e-11
9.891148219e-11
1.350205422e-10
1.333702065e-10
1.214199689e-10
1.655422596e-10
1.611047798e-10
1.985430407e-10
2.057821366e-10
2.243637812e-10
2.443936128e-10
2.824215441e-10
2.927223003e-10
3.293963666e-10
2.877408855e-10
3.253778047e-10
3.550956537e-10
3.419472484e-10
3.694363168e-10
3.931616646e-10
4.367370985e-10
4.586630844e-10
4.137029896e-10
4.279247696e-10
5.064637483e-10
4.965211712e-10
5.360921007e-10
5.335360902e-10
5.426449569e-10
5.194019454e-10
6.181013316e-10
5.359569515e-10
6.154831225e-10
6.416534583e-10
6.679473971e-10
6.655172671e-10
7.074125294e-10
6.721524916e-10
6.687141928e-10
7.627506901e-10
7.745275212e-10
7.935457157e-10
8.279748321e-10
7.904993498e-10
8.064476874e-10
8.103095344e-10
8.79361751e-10
8.345690506e-10
9.188619109e-10
8.842579112e-10
1.058893603e-09
9.348157946e-10
9.590444369e-10
9.347333478e-10
1.059208235e-09
9.741352376e-10
9.827595018e-10
1.050158886e-09
1.009564119e-09
1.069484864e-09
1.149356609e-09
1.085206502e-09
1.016280661e-09
1.08865507e-09
1.026170358e-09
1.11630945e-09
1.116729241e-09
1.109589386e-09
1.118997287e-09
1.113287767e-09
1.138300127e-09
1.188364342e-09
1.166293982e-09
1.163393162e-09
1.143897888e-09
1.107938012e-09
1.178560993e-09
1.159159468e-09
1.182672321e-09
1.197757388e-09
1.201763592e-09
1.224367985e-09
1.220603264e-09
3.05389504e-12
1.543845577e-11
2.77270087e-11
4.729613158e-11
5.491537179e-11
7.549246404e-11
7.888601262e-11
1.09091729e-10
1.145557298e-10
1.179539642e-10
1.288085628e-10
1.654905152e-10
1.681803594e-10
1.770267372e-10
1.697506905e-10
2.245589309e-10
2.240841489e-10
2.659648369e-10
2.428143312e-10
3.086133963e-10
3.077405927e-10
2.681849644e-10
3.839067552e-10
3.000776875e-10
3.361793244e-10
3.873941293e-10
3.925534596e-10
4.144587785e-10
4.561161647e-10
4.876604435e-10
4.765596925e-10
5.06371753e-10
5.011541575e-10
5.617567402e-10
5.626687461e-10
5.881656867e-10
6.231830064e-10
6.236750173e-10
6.431612194e-10
6.216598422e-10
5.884155496e-10
6.770951006e-10
7.170919712e-10
7.155926219e-10
7.835015656e-10
7.678550504e-10
7.917299856e-10
8.045631995e-10
8.08681146e-10
7.863310149e-10
9.300971076e-10
8.643722637e-10
9.30714966e-10
9.441514676e-10
8.840765287e-10
9.063522814e-10
9.427243667e-10
9.589727562e-10
1.01033866e-09
9.586086843e-10
8.77254259e-10
9.674431875e-10
1.006936903e-09
1.03465458e-09
1.088684692e-09
1.109193611e-09
1.106924053e-09
1.057780633e-09
1.053444808e-09
1.12372137e-09
1.130873335e-09
1.185300839e-09
1.083291215e-09
1.116678294e-09
1.159714305e-09
1.161892384e-09
1.170915275e-09
1.10296653e-09
1.16156121e-09
1.181172902e-09
1.249499308e-09
1.172313805e-09
1.190186014e-09
1.156311754e-09
1.219959809e-09
1.251886647e-09
1.19218689e-09
1.284061479e-09
1.353275674e-09
1.199799992e-09
4.95165473e-12
2.463141482e-11
4.253023311e-11
4.727849229e-11
5.477768817e-11
6.601426388e-11
8.36727224e-11
1.26096057e-10
1.13155489e-10
1.36387246e-10
1.185422241e-10
1.661072544e-10
1.813014851e-10
1.929498431e-10
2.217624617e-10
2.406511087e-10
2.278220216e-10
2.841147816e-10
2.73749909e-10
2.891675921e-10
3.724783749e-10
3.230053168e-10
3.066728428e-10
3.511605902e-10
4.27496286e-10
4.011799817e-10
4.205276457e-10
4.16644266e-10
4.50953954e-10
4.50978909e-10
4.692174048e-10
4.881391444e-10
5.385317768e-10
5.118274984e-10
5.796700491e-10
6.217252736e-10
6.122364994e-10
6.435195513e-10
6.107459748e-10
6.903546146e-10
7.637833234e-10
7.22197728e-10
7.401098283e-10
7.194424256e-10
8.302401685e-10
7.7799832e-10
8.37504291e-10
7.571357442e-10
8.337932814e-10
9.086570151e-10
9.11362429e-10
8.57011791e-10
9.303258903e-10
9.283907925e-10
9.392692438e-10
1.016639145e-09
1.069505458e-09
9.836316071e-10
9.485173522e-10
9.582439395e-10
1.034085447e-09
1.121133697e-09
1.023828257e-09
1.046123729e-09
1.072990639e-09
1.125936048e-09
1.149774355e-09
1.104661188e-09
1.20462491e-09
1.256358594e-09
1.16314145e-09
1.175672597e-09
1.217498233e-09
1.13962318e-09
1.168614892e-09
1.163039972e-09
1.201226793e-09
1.155087444e-09
1.207244442e-09
1.260267544e-09
1.183426245e-09
1.216595824e-09
1.241691758e-09
1.321524371e-09
1.17101128e-09
1.216795431e-09
1.302554535e-09
1.330908558e-09
1.320427213e-09
1.391636457e-09
1.369070138e-11
2.061857075e-11
2.944934431e-11
6.449843366e-11
6.220322705e-11
8.627319915e-11
1.103112074e-10
8.94649306e-11
1.097135246e-10
1.320487636e-10
1.610171713e-10
1.723643887e-10
1.816978916e-10
2.261527952e-10
2.27114851e-10
2.374996866e-10
2.669013604e-10
2.71915523e-10
2.40053792e-10
2.871734009e-10
3.723061859e-10
3.437051788e-10
3.660470125e-10
3.98107744e-10
4.10900059e-10
4.259841138e-10
4.085456682e-10
4.464578719e-10
5.020677637e-10
4.79506637e-10
4.630314198e-10
5.593639069e-10
5.302118547e-10
5.633549009e-10
6.46838925e-10
6.511210917e-10
5.836440842e-10
6.863010384e-10
6.815811583e-10
5.985611467e-10
6.656786109e-10
7.16305943e-10
8.506051001e-10
8.149991007e-10
8.589706135e-10
8.26365915e-10
8.442271887e-10
7.86072593e-10
8.303588711e-10
9.140558878e-10
8.724306598e-10
8.938784232e-10
1.024575578e-09
9.778650901e-10
9.046713264e-10
9.3787982e-10
1.023028801e-09
9.870906147e-10
1.030326584e-09
1.076969962e-09
1.069211272e-09
1.037822672e-09
9.940805093e-10
1.239058131e-09
1.218481368e-09
1.12131951e-09
1.141954488e-09
1.204171107e-09
1.193753742e-09
1.182282633e-09
1.262769157e-09
1.200932577e-09
1.206792837e-09
1.325857537e-09
1.141003478e-09
1.233041236e-09
1.218867158e-09
1.185773677e-09
1.346440942e-09
1.263470203e-09
1.305192346e-09
1.317182414e-09
1.261801494e-09
1.331511174e-09
1.307646421e-09
1.358428725e-09
1.333739209e-09
1.275894737e-09
1.334296453e-09
1.660418821e-09
5.418424736e-12
2.893264277e-11
2.18851154e-11
3.441340821e-11
6.975034672e-11
7.971012641e-11
7.530144925e-11
1.119660631e-10
1.295314195e-10
1.346151745e-10
1.416680728e-10
1.740195476e-10
2.385230934e-10
2.006539653e-10
1.954918913e-10
2.22737636e-10
2.156299414e-10
2.945317542e-10
3.226079418e-10
3.103678217e-10
3.079476823e-10
3.79307105e-10
3.828746813e-10
3.666127807e-10
3.95621132e-10
3.979748042e-10
4.348891407e-10
5.168964633e-10
5.062565661e-10
4.636853928e-10
4.925768827e-10
4.872752083e-10
5.859876006e-10
6.045147071e-10
5.669353787e-10
6.054907488e-10
6.748368301e-10
6.242561801e-10
6.500480311e-10
6.82051016e-10
7.212719869e-10
7.649606303e-10
8.341804534e-10
7.436223605e-10
8.145769239e-10
7.673379386e-10
8.058899586e-10
9.37976438e-10
9.107760396e-10
9.277112642e-10
9.21624039e-10
9.091019611e-10
9.898962239e-10
9.673661423e-10
1.010519975e-09
1.032440316e-09
9.704910594e-10
1.008479024e-09
1.028229296e-09
1.074433604e-09
1.123993124e-09
1.115682452e-09
1.126043778e-09
1.130352539e-09
1.17187276e-09
1.210319187e-09
1.098772869e-09
1.167747888e-09
1.133940262e-09
1.273560846e-09
1.283251831e-09
1.253483537e-09
1.188631188e-09
1.172761031e-09
1.330192516e-09
1.263171957e-09
1.202188329e-09
1.29452958e-09
1.256458557e-09
1.307828741e-09
1.290734602e-09
1.322813391e-09
1.289796078e-09
1.280786178e-09
1.346747442e-09
1.305214815e-09
1.251699086e-09
1.314593192e-09
1.411123997e-09
2.013226339e-09
5.732250108e-12
1.33273317e-11
3.424461539e-11
4.575138736e-11
4.527242547e-11
6.977655102e-11
8.250420935e-11
1.360443375e-10
1.389562981e-10
1.447121236e-10
1.421419771e-10
1.712256883e-10
1.903240147e-10
1.959838258e-10
2.453965821e-10
2.397907435e-10
2.713725576e-10
2.957170927e-10
3.007061812e-10
2.704321533e-10
3.123335898e-10
3.12852741e-10
3.912232921e-10
4.290431086e-10
4.002344838e-10
4.543729284e-10
4.823786622e-10
4.587504116e-10
4.683147434e-10
5.012314613e-10
4.68017577e-10
5.496942122e-10
5.574603814e-10
6.261349952e-10
6.22778364e-10
6.368298318e-10
6.101705104e-10
6.937065046e-10
6.347702388e-10
6.869108351e-10
7.641050143e-10
7.979435703e-10
8.195808279e-10
7.022577777e-10
8.332035654e-10
8.56978517e-10
7.998636217e-10
8.774895181e-10
8.34786073e-10
8.587326205e-10
9.574182834e-10
8.704354643e-10
9.87201102e-10
1.019463893e-09
1.03326646e-09
1.011470837e-09
1.058234759e-09
9.82013373e-10
1.047661187e-09
1.13568363e-09
1.132867214e-09
1.100291547e-09
1.054560208e-09
1.153302358e-09
1.080486892e-09
1.245984777e-09
1.133339878e-09
1.156919603e-09
1.160885329e-09
1.184461145e-09
1.216570076e-09
1.253028227e-09
1.189156994e-09
1.22527823e-09
1.198780795e-09
1.247050657e-09
1.230574525e-09
1.276539076e-09
1.269125893e-09
1.261755938e-09
1.309519793e-09
1.281893445e-09
1.37592696e-09
1.239502298e-09
1.285960874e-09
1.329758611e-09
1.288757316e-09
1.450285061e-09
1.313689494e-09
2.712949246e-09
1.967526997e-12
2.810858502e-11
4.611720797e-11
3.998603178e-11
7.223576158e-11
8.313992877e-11
9.209471571e-11
1.160966361e-10
1.632719587e-10
1.28924354e-10
1.501136819e-10
1.597275269e-10
1.860846822e-10
2.067796075e-10
2.134552358e-10
2.550686864e-10
2.199810138e-10
2.712401641e-10
3.03505528e-10
3.026152569e-10
3.258325306e-10
3.531302079e-10
3.606920005e-10
4.362361549e-10
3.878906088e-10
4.079787701e-10
5.021555752e-10
4.609604451e-10
5.661882908e-10
5.110810576e-10
5.955813834e-10
5.400437651e-10
5.538747023e-10
5.231115988e-10
6.188680576e-10
6.95859716e-10
6.966359324e-10
6.519941466e-10
7.640891269e-10
8.007292752e-10
8.234067091e-10
7.497322994e-10
8.312488241e-10
7.018815319e-10
8.420009425e-10
7.723917211e-10
8.034009814e-10
9.200013291e-10
9.021310445e-10
9.857312616e-10
9.615602228e-10
9.38810396e-10
9.282013183e-10
9.899942066e-10
1.019093025e-09
1.025376429e-09
1.024465058e-09
1.194781356e-09
1.0701635e-09
1.06205377e-09
1.128119266e-09
1.091640598e-09
9.80318561e-10
1.075077083e-09
1.131979117e-09
1.168038316e-09
1.100583558e-09
1.245209779e-09
1.253748479e-09
1.179032822e-09
1.134935575e-09
1.242387131e-09
1.260150572e-09
1.220215032e-09
1.275580792e-09
1.220577323e-09
1.166287691e-09
1.28349485e-09
1.330965725e-09
1.289228568e-09
1.219639065e-09
1.203827093e-09
1.335027267e-09
1.290844833e-09
1.379766476e-09
1.283673427e-09
1.408703932e-09
1.301984048e-09
1.393570666e-09
3.19629569e-09
8.305820028e-12
2.495110095e-11
3.907240253e-11
6.075372794e-11
4.854396175e-11
1.014252172e-10
9.981299433e-11
8.906972695e-11
1.311172275e-10
1.491411316e-10
1.520813833e-10
2.080517854e-10
1.826741882e-10
2.11335094e-10
2.106325365e-10
2.515553849e-10
2.76381508e-10
3.115549739e-10
3.23001634e-10
3.643233462e-10
3.59664148e-10
3.242728228e-10
3.303149111e-10
3.584602828e-10
4.119756034e-10
4.073481628e-10
4.542714542e-10
4.683337814e-10
5.208189271e-10
5.530078101e-10
4.966097878e-10
4.852606443e-10
6.357095074e-10
5.790859566e-10
6.272395386e-10
6.480241581e-10
5.940105643e-10
6.716205776e-10
6.414719068e-10
7.412521424e-10
7.875290925e-10
7.662256598e-10
7.853714535e-10
7.658192984e-10
8.184784785e-10
6.849439809e-10
8.898709583e-10
8.906922748e-10
9.705455478e-10
9.708529532e-10
9.305188716e-10
1.119973736e-09
9.497128561e-10
1.05501867e-09
9.914725145e-10
9.756971144e-10
1.034905992e-09
1.023346712e-09
1.028472644e-09
1.053328085e-09
1.048911186e-09
1.174644388e-09
1.06208985e-09
1.033339881e-09
1.11636588e-09
1.055498998e-09
1.104376971e-09
1.210652425e-09
1.179638014e-09
1.118902758e-09
1.196836566e-09
1.079369371e-09
1.22677189e-09
1.286419451e-09
1.268454135e-09
1.22601163e-09
1.185618285e-09
1.233587677e-09
1.286266448e-09
1.204044843e-09
1.303810258e-09
1.273616306e-09
1.240826066e-09
1.230866475e-09
1.352748084e-09
1.30806875e-09
1.36034878e-09
1.386286496e-09
1.340551257e-09
4.015534052e-09
2.153533911e-12
1.965833564e-11
5.095434065e-11
4.362598263e-11
6.135545627e-11
1.095458487e-10
1.064720171e-10
9.19773836e-11
1.703337884e-10
1.521773411e-10
1.939941695e-10
1.63847656e-10
1.893643566e-10
2.430434035e-10
2.226584266e-10
2.612285106e-10
3.003789518e-10
2.900408949e-10
2.930441584e-10
3.473056221e-10
3.326327571e-10
3.72234754e-10
3.897434004e-10
4.158879235e-10
4.180716461e-10
4.094688736e-10
4.811356643e-10
5.294659571e-10
4.887668275e-10
5.18249881e-10
5.107763354e-10
6.079139265e-10
5.909445041e-10
5.980468901e-10
6.52681579e-10
5.435181057e-10
6.725966111e-10
7.020732541e-10
6.997822025e-10
7.055290047e-10
6.995251166e-10
7.193459399e-10
7.71430699e-10
7.38119024e-10
8.605655497e-10
8.134703245e-10
8.193179402e-10
8.801237618e-10
8.284255773e-10
8.747583175e-10
9.044673981e-10
8.70533746e-10
9.39055465e-10
1.05495087e-09
1.00202105e-09
8.886460572e-10
1.139317073e-09
9.602952018e-10
1.021232766e-09
1.049065629e-09
1.049267318e-09
1.129256285e-09
1.034554741e-09
1.120878068e-09
1.18536558e-09
1.141510991e-09
1.018545711e-09
1.089793071e-09
1.191676119e-09
1.148788775e-09
1.155427999e-09
1.259799494e-09
1.211175842e-09
1.329137219e-09
1.16583642e-09
1.196330721e-09
1.222686889e-09
1.253209309e-09
1.129052796e-09
1.260628233e-09
1.379268379e-09
1.194946429e-09
1.110073626e-09
1.359309539e-09
1.218720089e-09
1.223523981e-09
1.334933764e-09
1.287863292e-09
1.578683905e-09
4.391820368e-09
2.474129444e-11
2.273578182e-11
5.077576656e-11
5.235218607e-11
4.342313233e-11
7.64680445e-11
1.164293713e-10
1.338906423e-10
1.480122154e-10
1.790916681e-10
1.960502322e-10
1.621463798e-10
2.057926124e-10
2.592594499e-10
2.378293864e-10
2.63407132e-10
2.966023929e-10
3.126238377e-10
3.249722761e-10
3.311919178e-10
3.711745512e-10
3.527723002e-10
3.793393737e-10
3.675341165e-10
4.608013128e-10
4.369613097e-10
4.366325294e-10
4.465878231e-10
4.731718482e-10
5.593902037e-10
5.226937415e-10
5.10456896e-10
5.858930876e-10
5.504356089e-10
5.820485941e-10
6.416175622e-10
5.957038925e-10
5.724577343e-10
7.322239401e-10
6.268936315e-10
7.291335286e-10
7.820486863e-10
7.19086807e-10
9.228254678e-10
7.533606093e-10
7.586360758e-10
8.890374529e-10
8.862716831e-10
8.984544905e-10
8.867243585e-10
9.272570797e-10
9.212197794e-10
8.990767812e-10
9.380486948e-10
9.68972808e-10
9.569261118e-10
9.771046484e-10
1.013023908e-09
1.130468232e-09
1.094028677e-09
1.004867493e-09
1.1102542e-09
1.01540514e-09
1.065984303e-09
1.131547152e-09
1.178679277e-09
1.134595025e-09
1.117645987e-09
1.17789029e-09
1.145726723e-09
1.084725602e-09
1.136811942e-09
1.103012433e-09
1.16943557e-09
1.169862834e-09
1.250537565e-09
1.175915183e-09
1.375867197e-09
1.181179105e-09
1.201169815e-09
1.173893864e-09
1.209634494e-09
1.213012883e-09
1.279624494e-09
1.279978892e-09
1.193554447e-09
1.234078396e-09
1.242240076e-09
2.388174477e-09
4.75718816e-09
2.330533408e-12
1.41120398e-11
4.405669939e-11
6.814959535e-11
8.556059643e-11
9.069712218e-11
1.083757792e-10
1.12348791e-10
1.579985904e-10
1.529004515e-10
1.932642473e-10
1.490655996e-10
1.935232985e-10
2.249094855e-10
2.569730421e-10
2.369660517e-10
2.589524085e-10
2.947758833e-10
2.924650156e-10
3.328201792e-10
3.542428437e-10
3.253656319e-10
3.854611468e-10
4.106166755e-10
4.614402394e-10
4.417408836e-10
4.549874788e-10
4.592734375e-10
5.144498097e-10
5.355207007e-10
4.98967887e-10
5.912054801e-10
5.627376353e-10
6.286170519e-10
5.94203939e-10
6.295161639e-10
5.534179071e-10
6.554422318e-10
7.156711455e-10
7.074033639e-10
7.220503533e-10
7.001931824e-10
7.59099723e-10
6.816370362e-10
7.988453457e-10
7.928986435e-10
8.186164122e-10
8.794640556e-10
8.651913584e-10
9.333334676e-10
8.815506436e-10
8.794693715e-10
8.379442967e-10
9.440278321e-10
9.222157304e-10
9.322898232e-10
1.068313473e-09
9.394669035e-10
1.096012695e-09
1.026830375e-09
1.077860025e-09
1.087191645e-09
1.056847915e-09
1.014597558e-09
1.083690357e-09
1.062577527e-09
1.0997732e-09
1.037535618e-09
1.087472417e-09
1.162327824e-09
1.210300691e-09
1.151857056e-09
1.113081484e-09
1.182993525e-09
1.166309475e-09
1.218200001e-09
1.121518041e-09
1.152420864e-09
1.22089464e-09
1.197127122e-09
1.250057344e-09
1.29461709e-09
1.187238309e-09
1.167785098e-09
1.211357641e-09
1.236215657e-09
1.219121168e-09
1.26716774e-09
3.698524267e-09
3.87002073e-09
4.911287841e-12
3.143211851e-11
5.363002507e-11
5.460862722e-11
8.117522297e-11
9.378557621e-11
1.039828533e-10
1.270431538e-10
1.634306844e-10
1.400892977e-10
1.885322529e-10
1.929911716e-10
2.026179131e-10
2.267654556e-10
2.628305787e-10
2.665273288e-10
2.671304356e-10
2.73025325e-10
2.883446356e-10
3.23343569e-10
3.3668935e-10
3.403451829e-10
3.685261598e-10
3.477800062e-10
4.227748447e-10
4.361404018e-10
4.744150037e-10
4.698926862e-10
3.976696579e-10
4.466007645e-10
5.549996043e-10
5.743443373e-10
5.167659871e-10
5.304999153e-10
5.366666421e-10
6.402811749e-10
7.105165543e-10
6.439233375e-10
6.266823312e-10
6.106190407e-10
6.037938512e-10
6.396086332e-10
6.710758774e-10
6.944041043e-10
7.538613904e-10
7.806776357e-10
7.845699941e-10
8.683783083e-10
8.317512872e-10
8.569634508e-10
8.610348061e-10
8.157432829e-10
8.607706018e-10
8.908767899e-10
9.126038562e-10
1.043526638e-09
9.769121399e-10
9.180295215e-10
9.847374861e-10
9.646015205e-10
8.959014296e-10
9.158163104e-10
1.007403138e-09
9.723463238e-10
1.071205766e-09
1.029253865e-09
1.020547149e-09
9.76508113e-10
9.540732365e-10
1.084417142e-09
1.073259153e-09
1.125623424e-09
1.150253283e-09
1.078304221e-09
1.127167472e-09
1.118069765e-09
1.131440319e-09
1.186262596e-09
1.142246661e-09
1.170826629e-09
1.131015125e-09
1.101162493e-09
1.218875636e-09
1.169264623e-09
1.071033771e-09
1.172504813e-09
1.167457e-09
1.856391637e-09
4.192243847e-09
3.750932388e-09
2.525747363e-12
3.291701638e-11
5.049251626e-11
6.605668722e-11
6.621118402e-11
5.818532316e-11
6.697971083e-11
1.252771467e-10
1.075141681e-10
1.395615352e-10
1.607384232e-10
1.468183851e-10
1.711443049e-10
1.905472031e-10
2.67700736e-10
2.455351754e-10
2.846068101e-10
2.975372023e-10
3.579324249e-10
2.659495835e-10
3.059675168e-10
3.717495496e-10
3.667219025e-10
3.833547398e-10
3.980153369e-10
4.317386322e-10
4.130516813e-10
4.684016594e-10
4.651386201e-10
5.044001037e-10
5.168708127e-10
4.287969959e-10
5.696240985e-10
5.25735071e-10
5.779189484e-10
5.571286145e-10
6.28309068e-10
5.898774537e-10
6.821187368e-10
6.16291717e-10
6.469153054e-10
6.773685496e-10
7.199247948e-10
6.753517815e-10
7.196000617e-10
8.108896296e-10
7.924156395e-10
7.384353467e-10
8.08896149e-10
7.586468865e-10
8.035042552e-10
9.045414906e-10
8.385227698e-10
8.756564038e-10
9.44260653e-10
8.637148815e-10
8.480120228e-10
8.942021484e-10
9.587565645e-10
9.053998851e-10
9.51886827e-10
1.027563741e-09
1.009139118e-09
1.019298044e-09
9.906758293e-10
1.031300978e-09
9.116496305e-10
1.019039803e-09
9.992088285e-10
9.975881013e-10
1.109010433e-09
9.949020374e-10
1.060128596e-09
1.149808226e-09
1.133727261e-09
1.008497698e-09
1.109661275e-09
1.098304673e-09
1.139440584e-09
1.125020007e-09
1.187312274e-09
1.149494056e-09
1.050723974e-09
1.138470792e-09
1.123997892e-09
1.140577795e-09
1.085915761e-09
3.289105815e-09
3.768547118e-09
3.70689592e-09
0
2.362214168e-11
2.887711093e-11
5.770688483e-11
4.763246147e-11
1.010610913e-10
7.153237486e-11
1.091211057e-10
1.199570521e-10
1.591025656e-10
1.580777987e-10
1.900648203e-10
1.795967187e-10
2.162939627e-10
2.330114905e-10
2.230811344e-10
2.740962109e-10
2.844996388e-10
3.162456939e-10
3.245625805e-10
3.591387841e-10
3.018766388e-10
3.35162679e-10
3.930110646e-10
3.872611187e-10
4.084978999e-10
4.251349605e-10
4.027087184e-10
4.814856318e-10
4.624382405e-10
4.946170593e-10
5.616811008e-10
4.945371156e-10
5.62517199e-10
5.513614682e-10
5.654805861e-10
6.164490434e-10
6.384821857e-10
6.08215678e-10
6.145774435e-10
6.993797941e-10
6.824431034e-10
5.973058524e-10
7.28009026e-10
7.887263067e-10
7.055441678e-10
7.360240052e-10
8.625163351e-10
7.94426301e-10
7.233860317e-10
8.072598853e-10
7.567385397e-10
8.555045703e-10
9.000773454e-10
8.421542439e-10
8.473072239e-10
7.601613326e-10
8.379730821e-10
8.504561026e-10
8.287144625e-10
8.631462592e-10
9.014788261e-10
9.213886027e-10
9.072319675e-10
9.12663052e-10
9.484538189e-10
1.007205792e-09
1.002682407e-09
1.008556989e-09
9.726625537e-10
1.003063762e-09
9.998241129e-10
9.573748613e-10
1.012439465e-09
1.105158024e-09
1.053715289e-09
1.006003717e-09
1.08875958e-09
1.050093572e-09
1.015646389e-09
1.029319769e-09
1.039121901e-09
1.07188858e-09
9.403959926e-10
1.129872971e-09
1.051085801e-09
2.245692744e-09
4.525526517e-09
3.28337895e-09
3.637163112e-09
8.106388774e-12
2.96546085e-11
2.968785524e-11
5.149304987e-11
6.811531115e-11
7.370557129e-11
1.202633645e-10
1.178319268e-10
1.261373695e-10
1.107706594e-10
1.738470364e-10
1.625141602e-10
2.557566051e-10
1.839379105e-10
2.53715979e-10
2.065179402e-10
3.029961569e-10
2.754510591e-10
2.929256803e-10
3.307197767e-10
3.240513767e-10
3.465440163e-10
3.433009651e-10
3.308618263e-10
4.162056892e-10
3.581758022e-10
3.605549908e-10
4.361275293e-10
4.717758258e-10
3.88983226e-10
5.121931972e-10
4.954070848e-10
5.364044076e-10
5.721831595e-10
6.081816204e-10
5.811424756e-10
6.152590159e-10
5.404696977e-10
5.64281205e-10
5.959525554e-10
6.215396301e-10
6.895154065e-10
6.356669863e-10
7.7407152e-10
6.844679365e-10
7.094647235e-10
7.776033765e-10
6.581578875e-10
6.690739427e-10
6.502008208e-10
7.334648511e-10
7.663745279e-10
7.893385869e-10
8.511275877e-10
8.256771734e-10
8.780614926e-10
9.279332679e-10
7.678692306e-10
7.81885029e-10
8.465884373e-10
7.990970864e-10
8.43452976e-10
8.089282641e-10
9.142067526e-10
8.227584206e-10
9.384117204e-10
9.472775963e-10
9.778688772e-10
9.211587869e-10
9.21904305e-10
9.116812242e-10
9.824870681e-10
9.758714783e-10
9.288997194e-10
9.142979722e-10
9.503605133e-10
1.001800229e-09
9.558867109e-10
1.046800963e-09
9.588623505e-10
9.808674218e-10
8.660992417e-10
9.931340137e-10
1.000902294e-09
9.362315432e-10
1.628368578e-09
4.508400717e-09
4.182003904e-09
3.122951466e-09
3.935356644e-09
1.679061025e-11
2.890895053e-11
1.685828319e-11
3.912608802e-11
5.054488701e-11
7.321130318e-11
1.296959034e-10
9.601603839e-11
1.301965881e-10
1.489968391e-10
1.594175647e-10
1.311049347e-10
2.007863087e-10
2.171773306e-10
2.128804446e-10
2.640663902e-10
2.508280798e-10
2.66609021e-10
2.824171991e-10
2.604707061e-10
3.299934894e-10
3.423680813e-10
3.391781308e-10
3.689557514e-10
4.35991736e-10
3.852681325e-10
3.671285991e-10
4.134452947e-10
4.581592366e-10
4.499746351e-10
4.717114894e-10
5.222234227e-10
4.521730702e-10
5.435428353e-10
5.593038461e-10
5.832389019e-10
5.048171549e-10
5.905485626e-10
5.775233872e-10
5.80055695e-10
6.215615537e-10
6.469770085e-10
6.805993069e-10
6.703026078e-10
7.310020673e-10
7.422704922e-10
7.376186743e-10
6.507970339e-10
7.118666885e-10
7.832215506e-10
7.411611708e-10
7.16235579e-10
7.424208428e-10
7.589389482e-10
7.12953579e-10
7.427036484e-10
8.576257806e-10
7.966124589e-10
7.851921246e-10
9.487868776e-10
8.319284863e-10
8.810944503e-10
7.804921218e-10
9.021018753e-10
9.218044478e-10
9.95693634e-10
8.084170735e-10
8.373487571e-10
8.652560299e-10
8.919608155e-10
1.017735554e-09
8.935687902e-10
1.00078773e-09
8.909168839e-10
9.725207804e-10
9.357050532e-10
8.918205171e-10
9.380891623e-10
9.357490607e-10
8.874298968e-10
9.738905876e-10
9.6941821e-10
9.666584677e-10
9.64614749e-10
1.558289211e-09
4.409493335e-09
5.027702329e-09
2.894429561e-09
3.107839774e-09
4.13721028e-09
2.867536789e-12
2.762017461e-11
2.3019297e-11
5.342950598e-11
6.057663951e-11
6.669926943e-11
8.415693254e-11
1.27892413e-10
1.340697651e-10
1.095027253e-10
1.581276997e-10
1.452894684e-10
1.931993254e-10
2.069070548e-10
1.895915273e-10
2.142161188e-10
2.573847588e-10
2.730281876e-10
2.417737145e-10
2.77157152e-10
3.188322322e-10
3.262363559e-10
3.380648623e-10
3.839781214e-10
3.5477584e-10
4.012433928e-10
4.112671457e-10
4.391618962e-10
3.918832877e-10
4.71748156e-10