/*--------------------------------*- C++ -*----------------------------------*\
| =========                 |                                                 |
| \\      /  F ield         | OpenFOAM: The Open Source CFD Toolbox           |
|  \\    /   O peration     | Version:  2206                                  |
|   \\  /    A nd           | Website:  www.openfoam.com                      |
|    \\/     M anipulation  |                                                 |
\*---------------------------------------------------------------------------*/
FoamFile
{
    version     2.0;
    format      ascii;
    arch        "LSB;label=32;scalar=64";
    class       volScalarField::Internal;
    location    "0.01";
    object      reactingCloud1:WTrans;
}
// * * * * * * * * * * * * * * * * * * * * * * * * * * * * * * * * * * * * * //

dimensions      [1 2 -3 0 0 0 0];

value           nonuniform List<scalar> 
18900
(
-2.857908449e-15
-1.219884659e-14
-1.014124242e-14
-1.830602815e-14
-1.827737812e-14
-1.34404391e-14
-4.15136132e-14
-4.400230849e-14
-6.39339299e-14
-1.855892545e-14
-6.766892546e-14
-3.127726431e-14
-1.121437428e-13
-5.340805347e-14
-7.899251268e-14
-1.0034075e-13
-5.279618865e-14
-9.134214674e-14
-1.723094345e-13
-9.051100149e-14
-4.933654305e-14
-1.443649194e-14
-7.752850226e-14
-1.579518258e-13
-1.649977914e-13
-1.289207908e-13
-7.093189532e-14
-1.255057151e-13
-1.358982833e-13
-5.595813882e-14
-1.530395745e-13
-5.565021033e-14
-3.070436949e-13
-1.070379084e-13
-2.632735024e-14
-2.074070046e-13
-2.317373358e-13
-1.282920249e-13
-2.327043181e-13
-1.640233238e-13
-2.141525363e-13
-2.824929994e-13
-2.542193683e-13
-1.022996172e-13
-2.135559312e-13
-2.242083602e-13
-1.080648994e-13
-2.096499978e-13
-1.32234764e-13
-2.868990622e-13
-1.872231509e-13
-2.098020918e-13
1.047487138e-13
-3.518916741e-13
-1.323166001e-13
1.99248036e-14
-2.782200376e-13
-2.515409273e-13
-2.755505515e-13
-1.968824986e-13
7.513247888e-14
-1.963434904e-13
-3.996674601e-14
-5.863371335e-14
5.406057742e-14
-1.327808825e-14
1.680784383e-15
-8.494410185e-14
-7.775323827e-16
-3.873755302e-14
2.561428029e-14
5.577186151e-14
9.511518135e-14
1.067514807e-13
1.63570943e-13
1.654296285e-13
2.019687956e-13
2.252798619e-13
2.430414706e-13
2.936894448e-13
3.444229522e-13
3.874159855e-13
3.54340951e-13
4.193654552e-13
3.739207365e-13
5.004442488e-13
4.639746697e-13
4.689331802e-13
4.974884914e-13
5.281702786e-13
-1.873919275e-14
-7.118929093e-14
-1.037127047e-13
-1.378873585e-13
-2.416251693e-13
-3.125137758e-13
-3.847880502e-13
-3.857362643e-13
-3.330439194e-13
-3.821691789e-13
-4.743585249e-13
-5.402191898e-13
-4.318504395e-13
-5.437297621e-13
-7.233613901e-13
-6.984540215e-13
-7.866020647e-13
-9.297097698e-13
-1.048221269e-12
-1.01148565e-12
-1.016976954e-12
-1.074269456e-12
-1.21642112e-12
-1.234542755e-12
-1.237403397e-12
-1.317860803e-12
-1.431000627e-12
-1.317099895e-12
-1.317661038e-12
-1.489838882e-12
-1.472679006e-12
-1.454781121e-12
-1.494937788e-12
-1.668372748e-12
-1.647301153e-12
-1.550075176e-12
-1.690230658e-12
-1.745427375e-12
-1.569358922e-12
-1.612273394e-12
-1.448750449e-12
-1.523224589e-12
-1.437652285e-12
-1.745668283e-12
-1.421637862e-12
-1.599199458e-12
-1.462697598e-12
-1.486905008e-12
-1.489713532e-12
-1.464186308e-12
-1.368673957e-12
-1.369518169e-12
-1.547655128e-12
-1.078646209e-12
-1.111756968e-12
-1.12867648e-12
-1.116985016e-12
-1.042895317e-12
-8.347202038e-13
-9.583067037e-13
-7.411690079e-13
-8.214586159e-13
-6.162118672e-13
-6.273120175e-13
-4.414001081e-13
-2.537271891e-13
-1.3168762e-15
-7.468096703e-14
-8.878482669e-15
2.750589341e-13
2.936095692e-13
4.249294395e-13
6.338330943e-13
8.572823594e-13
7.840599653e-13
1.130170405e-12
1.198925744e-12
1.403342899e-12
1.652373676e-12
1.771950293e-12
2.029490631e-12
2.284773902e-12
2.455724852e-12
2.655730604e-12
2.67144596e-12
2.975374468e-12
3.044647113e-12
3.18517177e-12
3.348186504e-12
3.376428364e-12
-1.137864898e-14
-2.107270232e-13
-3.504269883e-13
-4.835255776e-13
-4.98480375e-13
-6.61815035e-13
-7.748170386e-13
-1.200839088e-12
-1.066670443e-12
-1.211224685e-12
-1.491883587e-12
-1.860267885e-12
-1.880384129e-12
-2.020395401e-12
-2.218137285e-12
-2.406075398e-12
-2.294271105e-12
-2.445486476e-12
-2.800019957e-12
-2.652963473e-12
-2.882803562e-12
-3.750240677e-12
-2.944698992e-12
-3.269130292e-12
-3.517734664e-12
-3.365239743e-12
-3.412579388e-12
-3.719156389e-12
-4.371372763e-12
-4.024773844e-12
-3.673617114e-12
-3.971238649e-12
-4.688866703e-12
-3.840106372e-12
-4.383021028e-12
-4.311178362e-12
-4.679266295e-12
-4.108635801e-12
-4.150117584e-12
-4.528646747e-12
-4.315536711e-12
-4.010843363e-12
-4.19396099e-12
-4.138223602e-12
-4.120262219e-12
-3.814584613e-12
-4.190325673e-12
-3.511889682e-12
-3.766111955e-12
-3.596597699e-12
-3.746455442e-12
-3.356010432e-12
-3.227034954e-12
-3.294211374e-12
-3.041889343e-12
-2.638249232e-12
-2.545324871e-12
-2.675565588e-12
-2.291130444e-12
-2.237000532e-12
-2.059995066e-12
-1.458230535e-12
-1.37869466e-12
-1.184095392e-12
-9.097103208e-13
-6.515719182e-13
-2.422977408e-13
3.418869369e-14
3.318293597e-13
7.53033664e-13
9.607571426e-13
1.435252782e-12
1.770014695e-12
2.157346751e-12
2.433361517e-12
2.734618763e-12
3.28481111e-12
3.795543126e-12
4.43996029e-12
4.814915412e-12
5.416380878e-12
5.657838493e-12
6.108212266e-12
6.536659991e-12
7.124483639e-12
7.688176755e-12
8.186041453e-12
7.772264343e-12
9.047548602e-12
9.034134992e-12
-1.7346716e-13
-3.458631446e-13
-4.577495098e-13
-8.556639066e-13
-7.251004289e-13
-1.522025216e-12
-1.580539721e-12
-2.545427198e-12
-2.238070514e-12
-2.479478791e-12
-2.657047339e-12
-2.752031395e-12
-3.795609733e-12
-3.274954066e-12
-3.480168428e-12
-3.955290512e-12
-4.179923708e-12
-4.724567618e-12
-5.183490756e-12
-4.720375368e-12
-4.637090963e-12
-5.905906026e-12
-6.45557237e-12
-7.059305233e-12
-6.919938328e-12
-7.419686079e-12
-7.225477324e-12
-7.402368092e-12
-7.311153017e-12
-7.108182344e-12
-7.971415935e-12
-7.575299903e-12
-8.252954287e-12
-8.090312596e-12
-7.78929385e-12
-8.11402297e-12
-8.379583228e-12
-8.474234555e-12
-7.972224287e-12
-7.857908235e-12
-8.116353384e-12
-8.531402993e-12
-7.858178078e-12
-6.79533567e-12
-7.968192779e-12
-8.642126568e-12
-7.288060938e-12
-6.655032237e-12
-6.784611195e-12
-6.599486107e-12
-6.493264578e-12
-6.163840383e-12
-5.625871142e-12
-6.053450781e-12
-5.581964862e-12
-4.849740971e-12
-4.7229189e-12
-4.62393689e-12
-3.682743096e-12
-3.425539311e-12
-3.080026894e-12
-2.920609383e-12
-2.319405057e-12
-2.01054467e-12
-1.32027588e-12
-7.584206536e-13
-3.772050304e-15
3.048096072e-13
8.331976345e-13
1.43344564e-12
2.320127072e-12
2.948307122e-12
3.631783151e-12
3.987880498e-12
5.282499557e-12
5.296030542e-12
6.563893566e-12
7.331380708e-12
7.711419898e-12
8.743302622e-12
1.016100617e-11
1.061855944e-11
1.220451501e-11
1.146702677e-11
1.312604288e-11
1.445089108e-11
1.495122844e-11
1.610907879e-11
1.666326582e-11
1.752320956e-11
-1.527679854e-13
-5.138927384e-13
-8.503954571e-13
-1.228581972e-12
-1.75285499e-12
-1.858798635e-12
-3.078138441e-12
-2.189025453e-12
-3.409771927e-12
-4.665461475e-12
-4.594207634e-12
-4.058059499e-12
-5.693764529e-12
-5.56319148e-12
-6.657560096e-12
-6.903249293e-12
-7.589223713e-12
-8.026065223e-12
-9.17592545e-12
-9.45511245e-12
-1.058863893e-11
-9.119918572e-12
-1.00502943e-11
-1.099680262e-11
-1.03620564e-11
-1.106782541e-11
-1.153524212e-11
-1.239941435e-11
-1.293685018e-11
-1.150731004e-11
-1.179407624e-11
-1.361537896e-11
-1.292443958e-11
-1.381102675e-11
-1.370269014e-11
-1.318215515e-11
-1.222085095e-11
-1.400379627e-11
-1.180478201e-11
-1.318747073e-11
-1.315442088e-11
-1.322017621e-11
-1.245886368e-11
-1.289538212e-11
-1.176970491e-11
-1.12879784e-11
-1.217993631e-11
-1.189824466e-11
-1.138617721e-11
-1.12727053e-11
-1.013335396e-11
-9.76981233e-12
-9.113905901e-12
-9.17688378e-12
-8.254301363e-12
-8.525191837e-12
-7.257314224e-12
-7.808243444e-12
-6.085604656e-12
-5.633321848e-12
-4.355201867e-12
-4.437827542e-12
-3.15569352e-12
-2.395455417e-12
-1.712064685e-12
-6.762086423e-13
5.199483855e-14
9.380280649e-13
1.794360918e-12
2.685907762e-12
3.735225738e-12
4.638783176e-12
5.860679566e-12
7.140608992e-12
8.030570286e-12
9.258653362e-12
1.036893759e-11
1.166258892e-11
1.338367966e-11
1.446879125e-11
1.566330458e-11
1.681780885e-11
1.771690268e-11
2.017347135e-11
2.148545645e-11
2.358257661e-11
2.535441447e-11
2.686850518e-11
2.916520521e-11
3.038290875e-11
-1.421823295e-13
-7.56473909e-13
-1.321675749e-12
-2.357245764e-12
-2.737947755e-12
-3.865031333e-12
-4.005341713e-12
-5.372069366e-12
-5.739009597e-12
-5.855584781e-12
-6.332939276e-12
-8.295071145e-12
-8.248894833e-12
-8.844281069e-12
-8.194207359e-12
-1.093816059e-11
-1.097341459e-11
-1.269043936e-11
-1.155503665e-11
-1.464680517e-11
-1.445581662e-11
-1.239973239e-11
-1.766882546e-11
-1.349256133e-11
-1.49006698e-11
-1.701760775e-11
-1.669129451e-11
-1.743245424e-11
-1.851914914e-11
-1.962711197e-11
-1.8808675e-11
-1.92211226e-11
-1.902711041e-11
-2.020269616e-11
-1.997908993e-11
-2.04406851e-11
-2.067322475e-11
-2.005247749e-11
-1.99263408e-11
-1.890876521e-11
-1.723702328e-11
-1.901044383e-11
-1.952360861e-11
-1.868505653e-11
-1.928819818e-11
-1.785852807e-11
-1.8185332e-11
-1.731936456e-11
-1.641127494e-11
-1.480961149e-11
-1.688436375e-11
-1.443517551e-11
-1.468843766e-11
-1.344840392e-11
-1.202663825e-11
-1.113453813e-11
-1.013426896e-11
-9.669542425e-12
-8.684037778e-12
-7.432764244e-12
-5.582265283e-12
-5.289148315e-12
-4.548608352e-12
-3.434141607e-12
-2.329433609e-12
-1.316368431e-12
1.339150966e-13
1.376927014e-12
2.438486118e-12
4.07591101e-12
5.405105522e-12
7.15850584e-12
7.795992175e-12
9.510840632e-12
1.136160541e-11
1.279914894e-11
1.469185051e-11
1.537855327e-11
1.790217921e-11
2.009530816e-11
2.314180863e-11
2.370397794e-11
2.630057835e-11
2.743057825e-11
3.15364113e-11
3.485042099e-11
3.58021443e-11
4.163795139e-11
4.718470196e-11
4.583451924e-11
-3.523437236e-13
-1.69639575e-12
-2.883731606e-12
-3.204283312e-12
-3.733248143e-12
-4.561153692e-12
-5.892942462e-12
-8.758898024e-12
-7.814204044e-12
-9.340763881e-12
-8.096401963e-12
-1.120850599e-11
-1.240637324e-11
-1.299368091e-11
-1.501223126e-11
-1.613980442e-11
-1.524010427e-11
-1.891003169e-11
-1.798097214e-11
-1.879431244e-11
-2.360538626e-11
-2.034554917e-11
-1.875694874e-11
-2.149127486e-11
-2.556371365e-11
-2.368436027e-11
-2.430282517e-11
-2.378915743e-11
-2.525012622e-11
-2.47130035e-11
-2.507016111e-11
-2.565510228e-11
-2.665893496e-11
-2.50373541e-11
-2.767942846e-11
-2.883805281e-11
-2.761463838e-11
-2.798687947e-11
-2.589418798e-11
-2.809138023e-11
-3.010375698e-11
-2.704377052e-11
-2.646053361e-11
-2.478662619e-11
-2.732657098e-11
-2.443834559e-11
-2.512368914e-11
-2.163307788e-11
-2.291157841e-11
-2.31655539e-11
-2.184207563e-11
-1.906522056e-11
-1.946205564e-11
-1.804154801e-11
-1.696675233e-11
-1.685888128e-11
-1.612927809e-11
-1.368776277e-11
-1.136495335e-11
-1.027526047e-11
-9.449014065e-12
-8.677206523e-12
-6.606270877e-12
-4.953155878e-12
-3.778300731e-12
-2.158689536e-12
-4.982062807e-13
1.228922689e-12
3.100766514e-12
5.292576817e-12
6.785135067e-12
8.754443181e-12
1.105736021e-11
1.216489029e-11
1.443365362e-11
1.650302481e-11
1.930264588e-11
2.056668836e-11
2.377906839e-11
2.732441829e-11
2.805819899e-11
3.146795861e-11
3.505759714e-11
4.070592751e-11
3.899603381e-11
4.412211286e-11
5.146335157e-11
5.747724546e-11
6.143282062e-11
7.324074665e-11
-1.167739888e-12
-1.77515689e-12
-2.548831899e-12
-5.740080956e-12
-5.612274429e-12
-7.724768394e-12
-1.010910929e-11
-8.107784226e-12
-9.846599795e-12
-1.161271219e-11
-1.449176763e-11
-1.548240554e-11
-1.613864367e-11
-2.017301876e-11
-1.970631036e-11
-2.076773711e-11
-2.315460066e-11
-2.362724399e-11
-2.029450988e-11
-2.454746996e-11
-3.105635273e-11
-2.805094523e-11
-2.96322985e-11
-3.156287447e-11
-3.23196848e-11
-3.25671618e-11
-3.108562014e-11
-3.306570834e-11
-3.628217942e-11
-3.396280676e-11
-3.196319561e-11
-3.802762929e-11
-3.49182497e-11
-3.585145989e-11
-4.000379026e-11
-3.9561631e-11
-3.399902019e-11
-3.902129755e-11
-3.712422812e-11
-3.167237918e-11
-3.384016622e-11
-3.53316652e-11
-4.048677454e-11
-3.69698537e-11
-3.688696343e-11
-3.387258601e-11
-3.319040522e-11
-2.923875175e-11
-2.91832289e-11
-3.08648912e-11
-2.716912306e-11
-2.65376443e-11
-2.82550822e-11
-2.53306639e-11
-2.15811457e-11
-2.068450039e-11
-2.081206023e-11
-1.83513933e-11
-1.689626518e-11
-1.571407342e-11
-1.352951702e-11
-1.118437521e-11
-8.90853554e-12
-8.94671971e-12
-6.247661673e-12
-3.782241483e-12
-1.640521745e-12
6.906729822e-13
2.96405609e-12
5.120498072e-12
8.143960195e-12
1.007683853e-11
1.245581057e-11
1.651131597e-11
1.65938171e-11
2.059870604e-11
2.29119244e-11
2.516487864e-11
3.16119542e-11
3.269101941e-11
3.708987792e-11
4.081033371e-11
4.270873598e-11
4.892377774e-11
5.229882224e-11
5.927994547e-11
6.340200626e-11
6.623253047e-11
7.483312716e-11
1.044223533e-10
-6.300420361e-13
-3.180433461e-12
-2.475432113e-12
-3.834772185e-12
-7.917003084e-12
-9.168975837e-12
-8.676310747e-12
-1.273096121e-11
-1.482165618e-11
-1.509777014e-11
-1.606861632e-11
-1.988245724e-11
-2.704397074e-11
-2.274698515e-11
-2.176082359e-11
-2.46148995e-11
-2.361385187e-11
-3.20692136e-11
-3.478171944e-11
-3.308865678e-11
-3.260636221e-11
-3.929006597e-11
-3.909656262e-11
-3.691508849e-11
-3.928958812e-11
-3.884810659e-11
-4.136648747e-11
-4.821417011e-11
-4.628799179e-11
-4.21802874e-11
-4.340936356e-11
-4.138601441e-11
-4.905661301e-11
-4.900765349e-11
-4.416711707e-11
-4.665667529e-11
-4.993563581e-11
-4.472046332e-11
-4.48856009e-11
-4.571395309e-11
-4.613530197e-11
-4.778835184e-11
-4.951730808e-11
-4.234151102e-11
-4.484384436e-11
-4.031177891e-11
-4.030098939e-11
-4.453753786e-11
-4.109892373e-11
-4.01037513e-11
-3.726976606e-11
-3.458307116e-11
-3.535268178e-11
-3.248357563e-11
-3.105007662e-11
-2.958642237e-11
-2.572364825e-11
-2.404813544e-11
-2.213441713e-11
-2.088668009e-11
-1.903840894e-11
-1.643753378e-11
-1.381620873e-11
-1.15029488e-11
-9.262960683e-12
-6.505806462e-12
-3.726005485e-12
-1.227447386e-12
1.411208333e-12
4.658739743e-12
7.800127422e-12
1.04746964e-11
1.293741351e-11
1.565189231e-11
2.107135191e-11
2.333390978e-11
2.550184726e-11
3.070246551e-11
3.331290002e-11
3.824838952e-11
4.164657668e-11
4.673565592e-11
4.988942199e-11
5.3837296e-11
6.13441912e-11
6.455141583e-11
6.688773552e-11
7.656466664e-11
8.763537693e-11
1.362249999e-10
-7.656288957e-13
-1.849262516e-12
-4.697432561e-12
-6.230363809e-12
-6.309245853e-12
-9.888707577e-12
-1.161110723e-11
-1.92974174e-11
-1.953887926e-11
-2.036576733e-11
-2.002227079e-11
-2.422544452e-11
-2.682342495e-11
-2.71416426e-11
-3.4193044e-11
-3.280065148e-11
-3.670552406e-11
-4.00614471e-11
-4.004369018e-11
-3.560870275e-11
-4.105903987e-11
-4.028717129e-11
-5.000386889e-11
-5.360594255e-11
-4.857033127e-11
-5.481719815e-11
-5.667291281e-11
-5.313658708e-11
-5.323698698e-11
-5.568917816e-11
-5.093078468e-11
-5.750937157e-11
-5.78633545e-11
-6.30818855e-11
-6.070941091e-11
-5.99574525e-11
-5.60864412e-11
-6.143598549e-11
-5.433613713e-11
-5.710084239e-11
-6.068231973e-11
-6.168516629e-11
-6.065555462e-11
-4.979549076e-11
-5.70020744e-11
-5.59510381e-11
-5.021275436e-11
-5.257943677e-11
-4.713616595e-11
-4.641837618e-11
-4.861848129e-11
-4.196825674e-11
-4.460704716e-11
-4.315881252e-11
-4.045163385e-11
-3.721271228e-11
-3.566044896e-11
-3.006578476e-11
-2.944069763e-11
-2.870027875e-11
-2.545919681e-11
-2.189335656e-11
-1.805118282e-11
-1.68679196e-11
-1.243764687e-11
-1.127355243e-11
-7.161908249e-12
-4.177973773e-12
-8.103894258e-13
2.148990771e-12
5.74934688e-12
9.321135869e-12
1.219916267e-11
1.639898631e-11
1.953409639e-11
2.401066611e-11
2.742101092e-11
3.252797783e-11
3.621212096e-11
4.025349837e-11
4.606124744e-11
4.93433912e-11
5.790147006e-11
5.67625436e-11
6.360299434e-11
7.126347701e-11
7.408040045e-11
9.010348886e-11
8.63267956e-11
1.866810318e-10
-3.162844821e-13
-4.876540897e-12
-7.841620127e-12
-6.68883005e-12
-1.210188082e-11
-1.427240177e-11
-1.57839175e-11
-1.995934832e-11
-2.842163881e-11
-2.201949707e-11
-2.556933042e-11
-2.756566326e-11
-3.157755872e-11
-3.481569606e-11
-3.626929487e-11
-4.252380848e-11
-3.609970817e-11
-4.452549864e-11
-4.900265335e-11
-4.837067011e-11
-5.184276169e-11
-5.490122407e-11
-5.592145437e-11
-6.548594352e-11
-5.810842571e-11
-5.950998541e-11
-7.29082649e-11
-6.506048605e-11
-7.796708057e-11
-6.907474738e-11
-7.865062587e-11
-6.967611972e-11
-6.927034145e-11
-6.33363332e-11
-7.351532758e-11
-8.007924643e-11
-7.770497556e-11
-7.067268081e-11
-8.077697846e-11
-8.115459059e-11
-8.03439e-11
-7.060535741e-11
-7.558418182e-11
-6.10833573e-11
-7.029154692e-11
-6.210958322e-11
-6.1749204e-11
-6.724663129e-11
-6.302283914e-11
-6.494566837e-11
-6.035730276e-11
-5.544138686e-11
-5.198825055e-11
-5.240069474e-11
-5.023285995e-11
-4.738647968e-11
-4.348120885e-11
-4.684059274e-11
-3.852903343e-11
-3.460489153e-11
-3.340760932e-11
-2.868304924e-11
-2.27441077e-11
-2.151631962e-11
-1.90845024e-11
-1.619374585e-11
-1.176800266e-11
-9.513506713e-12
-5.424686115e-12
-1.162848964e-12
2.399415436e-12
6.812199876e-12
1.111005536e-11
1.482332815e-11
1.96457505e-11
2.30972056e-11
2.614134944e-11
3.322136364e-11
3.925845666e-11
4.274730059e-11
4.505198229e-11
4.883424541e-11
5.94276948e-11
6.245329349e-11
7.210206122e-11
7.241972937e-11
8.504328703e-11
8.422448477e-11
9.45837259e-11
2.150437215e-10
-1.654975551e-12
-4.979690258e-12
-8.006502214e-12
-1.232341352e-11
-1.003341204e-11
-2.071763228e-11
-2.046447245e-11
-1.822357855e-11
-2.698581203e-11
-3.0615195e-11
-3.109722911e-11
-4.232090274e-11
-3.700342805e-11
-4.309413836e-11
-4.210579861e-11
-5.004585621e-11
-5.473633172e-11
-6.102238231e-11
-6.258842032e-11
-6.867024752e-11
-6.782192202e-11
-6.073864488e-11
-6.001454366e-11
-6.514140008e-11
-7.331895597e-11
-7.115707777e-11
-7.785742013e-11
-7.910888579e-11
-8.592402812e-11
-8.918483387e-11
-7.832246391e-11
-7.471535169e-11
-9.48405674e-11
-8.434105008e-11
-8.870278704e-11
-8.950824641e-11
-7.96332356e-11
-8.687517244e-11
-8.063313342e-11
-9.00342574e-11
-9.229364213e-11
-8.708547059e-11
-8.624770598e-11
-8.109206586e-11
-8.235089083e-11
-6.67024673e-11
-8.257038374e-11
-7.894455745e-11
-8.232465986e-11
-7.781125911e-11
-7.167894635e-11
-8.157180554e-11
-6.502087449e-11
-6.831327033e-11
-6.032486121e-11
-5.530159658e-11
-5.507563512e-11
-5.084660986e-11
-4.693471899e-11
-4.405621858e-11
-4.007921292e-11
-4.051899489e-11
-3.284680808e-11
-2.804736698e-11
-2.643615807e-11
-2.097797835e-11
-1.81328298e-11
-1.524530248e-11
-1.051923719e-11
-5.959867415e-12
-1.851924935e-12
2.247254094e-12
7.083323315e-12
1.239045784e-11
1.68912177e-11
2.119190913e-11
2.517666902e-11
3.092693314e-11
3.735043977e-11
3.982388467e-11
4.839416929e-11
5.27454463e-11
5.635499258e-11
6.087747363e-11
7.249735589e-11
7.55798952e-11
8.409223748e-11
9.157109136e-11
9.233163013e-11
2.539814672e-10
-4.994880156e-13
-4.76163275e-12
-1.2332671e-11
-1.039068929e-11
-1.468211768e-11
-2.661598771e-11
-2.603569694e-11
-2.250472208e-11
-4.130987945e-11
-3.673655301e-11
-4.713277099e-11
-3.965391657e-11
-4.556263861e-11
-5.784497666e-11
-5.285868029e-11
-6.129673512e-11
-6.93045877e-11
-6.652466687e-11
-6.677563484e-11
-7.833396549e-11
-7.431654491e-11
-8.216522112e-11
-8.431649162e-11
-8.821703795e-11
-8.79990875e-11
-8.401403997e-11
-9.72746415e-11
-1.047431568e-10
-9.487656577e-11
-9.87113952e-11
-9.487813597e-11
-1.104938302e-10
-1.048963259e-10
-1.027222204e-10
-1.090626033e-10
-8.881754683e-11
-1.062035033e-10
-1.077176612e-10
-1.041706844e-10
-1.018983201e-10
-9.752798683e-11
-9.720124392e-11
-1.007133417e-10
-9.252966827e-11
-1.035229923e-10
-9.428291429e-11
-9.067303145e-11
-9.273152595e-11
-8.411234286e-11
-8.481397466e-11
-8.332498742e-11
-7.653857982e-11
-7.807547603e-11
-8.250540858e-11
-7.402545202e-11
-6.183741076e-11
-7.478117601e-11
-5.85735192e-11
-5.801514411e-11
-5.479616698e-11
-5.052996775e-11
-4.992883469e-11
-4.103700877e-11
-4.011086658e-11
-3.741768673e-11
-3.133574096e-11
-2.402213774e-11
-2.107116194e-11
-1.821258214e-11
-1.312002234e-11
-7.877329028e-12
-3.654357421e-12
1.497207765e-12
7.20248892e-12
1.103969232e-11
1.696242482e-11
2.222122671e-11
2.831440561e-11
3.033191874e-11
3.946938579e-11
4.947981133e-11
4.798727429e-11
4.951047842e-11
6.658793853e-11
6.511774071e-11
7.045718825e-11
8.26812002e-11
8.498421136e-11
1.026921461e-10
2.542624357e-10
-6.726508289e-12
-6.427902146e-12
-1.431250381e-11
-1.467025733e-11
-1.222063453e-11
-2.15813311e-11
-3.30207743e-11
-3.765120258e-11
-4.167259102e-11
-5.037732261e-11
-5.527825893e-11
-4.528530638e-11
-5.727381741e-11
-7.110040389e-11
-6.553928275e-11
-7.154829661e-11
-7.980809773e-11
-8.317698173e-11
-8.568616441e-11
-8.707646358e-11
-9.594936685e-11
-8.955702004e-11
-9.586695143e-11
-9.073768236e-11
-1.125555133e-10
-1.043641603e-10
-1.027746077e-10
-1.029426451e-10
-1.072053756e-10
-1.23508817e-10
-1.135208436e-10
-1.080521721e-10
-1.211995899e-10
-1.111154835e-10
-1.129918663e-10
-1.221925758e-10
-1.102963719e-10
-1.030457853e-10
-1.281786631e-10
-1.056819725e-10
-1.185063628e-10
-1.236612964e-10
-1.103642382e-10
-1.359035196e-10
-1.064532468e-10
-1.031919514e-10
-1.168155218e-10
-1.110022018e-10
-1.085740864e-10
-1.018319168e-10
-1.014342058e-10
-9.658699952e-11
-8.906823536e-11
-8.790340364e-11
-8.681494626e-11
-8.049448088e-11
-7.781975467e-11
-7.530223774e-11
-7.926119657e-11
-7.141189897e-11
-6.048284528e-11
-6.196914888e-11
-5.154122793e-11
-4.910145029e-11
-4.729744939e-11
-4.319365996e-11
-3.690740467e-11
-3.130235104e-11
-2.735132902e-11
-2.157399927e-11
-1.529304189e-11
-1.074980532e-11
-5.423303563e-12
-5.071081979e-13
4.580443292e-12
1.130636125e-11
1.577048904e-11
2.49423492e-11
2.726465738e-11
3.304000513e-11
3.782069071e-11
4.485406354e-11
5.082043691e-11
5.952914773e-11
6.573454176e-11
6.674318574e-11
7.467267887e-11
8.020234312e-11
1.266149865e-10
2.53667882e-10
-7.168991007e-13
-4.508618461e-12
-1.423844473e-11
-2.217284261e-11
-2.794955339e-11
-2.979066006e-11
-3.505749984e-11
-3.648280886e-11
-5.153132046e-11
-4.979721036e-11
-6.271808612e-11
-4.850081356e-11
-6.248784187e-11
-7.245918213e-11
-8.141113028e-11
-7.454938969e-11
-8.092651667e-11
-9.064980182e-11
-8.96786574e-11
-1.00667685e-10
-1.060061047e-10
-9.576359627e-11
-1.117383796e-10
-1.172893425e-10
-1.296648109e-10
-1.219028989e-10
-1.231945851e-10
-1.218644807e-10
-1.341208813e-10
-1.362479945e-10
-1.245256695e-10
-1.455566352e-10
-1.333403272e-10
-1.459539241e-10
-1.342605088e-10
-1.390301885e-10
-1.187399762e-10
-1.373600583e-10
-1.45229116e-10
-1.388172996e-10
-1.379102496e-10
-1.28747565e-10
-1.342149835e-10
-1.164303309e-10
-1.322195139e-10
-1.268525996e-10
-1.249222959e-10
-1.290100144e-10
-1.221808763e-10
-1.263026319e-10
-1.140170956e-10
-1.090841709e-10
-9.907037449e-11
-1.058390881e-10
-9.732155228e-11
-9.344392235e-11
-1.021205527e-10
-8.446471736e-11
-9.250420106e-11
-8.094465654e-11
-7.987823074e-11
-7.43768327e-11
-6.719102906e-11
-5.867158746e-11
-5.789958407e-11
-5.164262426e-11
-4.731308323e-11
-3.937961502e-11
-3.628776054e-11
-3.266711172e-11
-2.782240019e-11
-2.069223136e-11
-1.45877738e-11
-1.014697335e-11
-4.29843902e-12
1.65052528e-12
7.309966372e-12
1.274163113e-11
1.989363022e-11
2.55316436e-11
3.318487808e-11
4.117673686e-11
4.373361582e-11
4.901527642e-11
5.730785823e-11
6.482247816e-11
7.004540479e-11
7.787996407e-11
1.546486303e-10
1.883865618e-10
-1.852605574e-12
-1.148751806e-11
-1.951156056e-11
-2.033686237e-11
-3.009778851e-11
-3.491673006e-11
-3.865928944e-11
-4.744685945e-11
-6.038908185e-11
-5.188458752e-11
-6.966941911e-11
-7.153757629e-11
-7.456645343e-11
-8.249836801e-11
-9.553912065e-11
-9.621068768e-11
-9.51847977e-11
-9.617454303e-11
-1.010191422e-10
-1.111533306e-10
-1.145629073e-10
-1.143862459e-10
-1.226033981e-10
-1.126592826e-10
-1.358563326e-10
-1.377276091e-10
-1.46759541e-10
-1.431174471e-10
-1.186538841e-10
-1.305436154e-10
-1.595280983e-10
-1.611802195e-10
-1.412548338e-10
-1.416654937e-10
-1.396000554e-10
-1.618663006e-10
-1.750034615e-10
-1.534377627e-10
-1.463542367e-10
-1.385591283e-10
-1.323880622e-10
-1.353595265e-10
-1.376215881e-10
-1.372403585e-10
-1.438304085e-10
-1.432260132e-10
-1.38978353e-10
-1.480026539e-10
-1.356437929e-10
-1.347214693e-10
-1.298836429e-10
-1.177029545e-10
-1.18408775e-10
-1.171086213e-10
-1.142538438e-10
-1.239869201e-10
-1.102060131e-10
-9.823024741e-11
-9.971458132e-11
-9.224658592e-11
-7.965467795e-11
-7.688558415e-11
-7.836236031e-11
-6.975519182e-11
-7.131713194e-11
-6.275399311e-11
-5.653588858e-11
-4.89197955e-11
-4.276775206e-11
-4.259359921e-11
-3.659590894e-11
-3.249079609e-11
-2.717189632e-11
-1.999672464e-11
-1.45741428e-11
-8.647734777e-12
-3.601454945e-12
2.68197557e-12
8.893989563e-12
1.558769752e-11
2.076395249e-11
2.653802994e-11
3.595941155e-11
4.104986286e-11
4.413851704e-11
5.463210017e-11
6.124170572e-11
8.102696991e-11
1.385950711e-10
1.627613614e-10
-1.045297196e-12
-1.336398005e-11
-2.081613557e-11
-2.773621708e-11
-2.787385485e-11
-2.466115168e-11
-2.879366609e-11
-5.230257246e-11
-4.492158907e-11
-5.845473524e-11
-6.712105156e-11
-6.110408408e-11
-7.125748547e-11
-7.90640317e-11
-1.097741986e-10
-9.939094806e-11
-1.142011947e-10
-1.18984866e-10
-1.407551955e-10
-1.038013156e-10
-1.18334387e-10
-1.412573052e-10
-1.373707211e-10
-1.413913447e-10
-1.445235622e-10
-1.549481257e-10
-1.445245514e-10
-1.620270974e-10
-1.58006136e-10
-1.676800424e-10
-1.675759169e-10
-1.369963592e-10
-1.771096279e-10
-1.592885734e-10
-1.703712434e-10
-1.603628144e-10
-1.764652089e-10
-1.615414109e-10
-1.810574437e-10
-1.589174468e-10
-1.611007822e-10
-1.63484464e-10
-1.687574138e-10
-1.529096889e-10
-1.57855915e-10
-1.711348389e-10
-1.617686743e-10
-1.452262955e-10
-1.534171268e-10
-1.378617864e-10
-1.403376667e-10
-1.520164941e-10
-1.347415073e-10
-1.346055218e-10
-1.387535133e-10
-1.20823845e-10
-1.130981827e-10
-1.132983884e-10
-1.147548908e-10
-1.026281288e-10
-1.02156511e-10
-1.033805932e-10
-9.514070293e-11
-9.005485908e-11
-8.128881406e-11
-7.823042461e-11
-6.375282485e-11
-6.466515699e-11
-5.807522904e-11
-5.186139325e-11
-5.197321362e-11
-4.147465905e-11
-3.846474481e-11
-3.533066008e-11
-2.836429052e-11
-1.99823674e-11
-1.594479734e-11
-9.773905636e-12
-3.947583648e-12
2.717647124e-12
9.840465865e-12
1.578663563e-11
2.102519219e-11
2.902315588e-11
3.675750548e-11
4.357108803e-11
4.703034086e-11
7.307883807e-11
1.036482726e-10
1.250897614e-10
0
-1.119668822e-11
-1.366650899e-11
-2.707036003e-11
-2.293601019e-11
-4.813013678e-11
-3.400177823e-11
-5.176195026e-11
-5.712894103e-11
-7.454065491e-11
-7.459486061e-11
-8.959067977e-11
-8.355302884e-11
-1.003225403e-10
-1.072134643e-10
-1.022309051e-10
-1.246760724e-10
-1.277203156e-10
-1.404874657e-10
-1.419570644e-10
-1.569586427e-10
-1.29617779e-10
-1.414486943e-10
-1.633100283e-10
-1.593804449e-10
-1.638709611e-10
-1.686446175e-10
-1.568777492e-10
-1.845790128e-10
-1.720300305e-10
-1.812423649e-10
-2.012533261e-10
-1.741624904e-10
-1.924426893e-10
-1.833095389e-10
-1.844117087e-10
-1.953838319e-10
-1.971186875e-10
-1.833446467e-10
-1.792318947e-10
-1.983672008e-10
-1.883512018e-10
-1.597691313e-10
-1.877636068e-10
-1.9704241e-10
-1.705568057e-10
-1.719401169e-10
-1.938510689e-10
-1.728170088e-10
-1.51049265e-10
-1.618660425e-10
-1.453078375e-10
-1.582819256e-10
-1.59600887e-10
-1.434416311e-10
-1.37491032e-10
-1.177821378e-10
-1.237165455e-10
-1.189293209e-10
-1.113424233e-10
-1.094490163e-10
-1.081592982e-10
-1.036157134e-10
-9.622213099e-11
-9.083346461e-11
-8.830571982e-11
-8.685831072e-11
-8.004791873e-11
-7.440158605e-11
-6.583024573e-11
-6.209968453e-11
-5.597490606e-11
-4.786206243e-11
-4.510325446e-11
-4.333793914e-11
-3.546379487e-11
-2.786889549e-11
-2.404509743e-11
-1.700992118e-11
-1.053421251e-11
-4.480579061e-12
1.469579375e-12
8.486176048e-12
1.342657723e-11
2.416729467e-11
2.786121427e-11
1.638193704e-11
3.381983024e-11
6.35264204e-11
6.563243556e-11
-4.259266567e-12
-1.545141805e-11
-1.544392634e-11
-2.717442511e-11
-3.632702685e-11
-3.936877541e-11
-6.41098924e-11
-6.26215574e-11
-6.651735541e-11
-5.847658122e-11
-9.151923152e-11
-8.55499138e-11
-1.337264951e-10
-9.533778173e-11
-1.304008633e-10
-1.058734103e-10
-1.528479189e-10
-1.38375545e-10
-1.458271197e-10
-1.62182169e-10
-1.561382228e-10
-1.661228615e-10
-1.628978481e-10
-1.538432915e-10
-1.912840936e-10
-1.613514436e-10
-1.591291614e-10
-1.904791004e-10
-2.016716141e-10
-1.632551293e-10
-2.111644433e-10
-1.988935379e-10
-2.1105035e-10
-2.19802829e-10
-2.289088198e-10
-2.130888429e-10
-2.2030676e-10
-1.891055156e-10
-1.912765187e-10
-1.969867626e-10
-1.987460888e-10
-2.141474343e-10
-1.91100024e-10
-2.258120692e-10
-1.92741653e-10
-1.944923292e-10
-2.057396463e-10
-1.692186307e-10
-1.660842178e-10
-1.558532443e-10
-1.689724e-10
-1.692759673e-10
-1.679238719e-10
-1.736473064e-10
-1.619076996e-10
-1.649160317e-10
-1.661306104e-10
-1.309306823e-10
-1.277317492e-10
-1.319073988e-10
-1.177785594e-10
-1.181683717e-10
-1.075050276e-10
-1.153149377e-10
-9.800405186e-11
-1.0532982e-10
-9.973056518e-11
-9.624047103e-11
-8.478291317e-11
-7.8806706e-11
-7.152821576e-11
-7.130672291e-11
-6.520560285e-11
-5.600107342e-11
-4.981629017e-11
-4.675936546e-11
-4.318652964e-11
-3.557208956e-11
-3.22393636e-11
-2.41572192e-11
-1.820846252e-11
-1.105614486e-11
-6.201589154e-12
-6.22426348e-13
6.545728403e-12
-1.259076315e-11
-8.918796192e-11
-1.487649667e-11
2.006837468e-11
-1.25014971e-11
-9.971354686e-12
-1.693768845e-11
-1.010036983e-11
-2.313993592e-11
-2.996261484e-11
-4.355348367e-11
-7.673055722e-11
-5.688390258e-11
-7.687713168e-11
-8.776695069e-11
-9.402692738e-11
-7.651011333e-11
-1.162249871e-10
-1.253365562e-10
-1.217770522e-10
-1.504517009e-10
-1.411624023e-10
-1.473207477e-10
-1.559049859e-10
-1.432010632e-10
-1.780331054e-10
-1.82806151e-10
-1.797657178e-10
-1.917184756e-10
-2.224443322e-10
-1.937200355e-10
-1.816810563e-10
-2.005083331e-10
-2.195177143e-10
-2.107782562e-10
-2.162769227e-10
-2.349000073e-10
-1.982968909e-10