/*--------------------------------*- C++ -*----------------------------------*\
| =========                 |                                                 |
| \\      /  F ield         | OpenFOAM: The Open Source CFD Toolbox           |
|  \\    /   O peration     | Version:  2206                                  |
|   \\  /    A nd           | Website:  www.openfoam.com                      |
|    \\/     M anipulation  |                                                 |
\*---------------------------------------------------------------------------*/
FoamFile
{
    version     2.0;
    format      ascii;
    arch        "LSB;label=32;scalar=64";
    class       volScalarField::Internal;
    location    "0.01";
    object      reactingCloud1:hsTrans;
}
// * * * * * * * * * * * * * * * * * * * * * * * * * * * * * * * * * * * * * //

dimensions      [1 2 -2 0 0 0 0];

value           nonuniform List<scalar> 
18900
(
3.90676237e-12
1.358333453e-11
1.76739848e-11
3.026886066e-11
3.556865032e-11
4.300036202e-11
7.079889068e-11
4.87290584e-11
5.141354563e-11
7.554980623e-11
8.126878693e-11
8.784882077e-11
1.033530016e-10
1.249106593e-10
1.055342459e-10
1.079231565e-10
1.100352287e-10
1.203739837e-10
1.431265488e-10
1.14154076e-10
1.37861226e-10
1.333598084e-10
1.503829073e-10
1.690783524e-10
1.807404605e-10
1.673405989e-10
1.777645953e-10
1.70261318e-10
1.723935046e-10
1.854085104e-10
2.040671594e-10
1.719594328e-10
1.947602527e-10
1.990501124e-10
1.86535842e-10
1.885401534e-10
1.798751619e-10
2.07767819e-10
2.094382383e-10
2.23190035e-10
1.987494682e-10
1.93590192e-10
2.148113718e-10
1.956369161e-10
2.143163101e-10
1.905400226e-10
2.004902045e-10
1.783980387e-10
2.142264724e-10
1.806169527e-10
1.878709953e-10
1.839911263e-10
1.927781833e-10
1.817638199e-10
1.687477405e-10
1.871449097e-10
1.668788329e-10
1.745338129e-10
1.734411757e-10
1.729982431e-10
1.552289244e-10
1.692984931e-10
1.633154233e-10
1.638881888e-10
1.455655491e-10
1.549033753e-10
1.445172614e-10
1.477194235e-10
1.518524299e-10
1.249577773e-10
1.298262451e-10
1.281479571e-10
1.271985154e-10
1.207777836e-10
1.19041078e-10
1.270915946e-10
1.275421046e-10
1.144687209e-10
1.169778439e-10
1.077513377e-10
1.095228025e-10
1.174756159e-10
1.130990823e-10
1.063169628e-10
1.022514974e-10
1.066797255e-10
9.870757181e-11
1.000349929e-10
1.065133465e-10
1.112308221e-10
3.610059407e-12
1.446070481e-11
2.231861624e-11
2.81145194e-11
4.756161967e-11
5.836084349e-11
7.330615044e-11
7.307416283e-11
6.686217346e-11
7.81207209e-11
9.646664386e-11
1.102802504e-10
8.605748341e-11
1.072902273e-10
1.35397915e-10
1.424018822e-10
1.48111869e-10
1.638661642e-10
1.798200145e-10
1.861420496e-10
1.942004828e-10
2.070397042e-10
2.048115724e-10
2.12170217e-10
2.351191649e-10
2.32154377e-10
2.411054589e-10
2.520171219e-10
2.540429061e-10
2.451634996e-10
2.543286823e-10
2.584613535e-10
2.478555967e-10
2.627895447e-10
2.916749772e-10
2.66608699e-10
2.641912942e-10
2.855982591e-10
2.803334434e-10
2.679443406e-10
2.650186448e-10
2.731833046e-10
2.571554901e-10
2.620690741e-10
2.396273608e-10
2.67322717e-10
2.738740776e-10
2.684285469e-10
2.49913537e-10
2.6837474e-10
2.517641772e-10
2.534095498e-10
2.697464349e-10
2.45183757e-10
2.354188444e-10
2.35254048e-10
2.371862218e-10
2.415994717e-10
2.354141227e-10
2.405133907e-10
2.289070678e-10
2.208293875e-10
2.227707866e-10
2.073669064e-10
2.182199892e-10
1.952463342e-10
1.939849112e-10
1.876512531e-10
1.833709364e-10
1.79606866e-10
1.773377634e-10
1.668887185e-10
1.705118638e-10
1.670410912e-10
1.541103134e-10
1.53002663e-10
1.528647869e-10
1.510373443e-10
1.557477216e-10
1.405314749e-10
1.437767615e-10
1.45439528e-10
1.403517514e-10
1.396284722e-10
1.296421625e-10
1.302170637e-10
1.275567283e-10
1.290342624e-10
1.284095351e-10
1.246116821e-10
1.17323261e-12
1.690184254e-11
2.666493724e-11
3.871212021e-11
3.931934452e-11
5.042545076e-11
6.151100981e-11
8.850368162e-11
8.195202205e-11
8.914106715e-11
1.149146087e-10
1.365069335e-10
1.388365303e-10
1.509737528e-10
1.684008646e-10
1.707327032e-10
1.673927432e-10
1.879774472e-10
1.970770098e-10
1.883233405e-10
2.084254687e-10
2.595034981e-10
2.132147589e-10
2.379285041e-10
2.444861542e-10
2.367737278e-10
2.26629017e-10
2.552333539e-10
3.065199261e-10
2.873129806e-10
2.529608365e-10
2.68356845e-10
3.086177225e-10
2.643697674e-10
3.036609854e-10
2.899621498e-10
3.235591123e-10
2.899087582e-10
2.887737765e-10
3.084849221e-10
3.11859087e-10
2.952266363e-10
3.101461852e-10
2.939491508e-10
2.902650797e-10
2.713650245e-10
3.064980737e-10
2.804367785e-10
2.776156693e-10
2.753692456e-10
2.921387126e-10
2.674543044e-10
2.660737665e-10
2.781668216e-10
2.708174024e-10
2.6618493e-10
2.535842157e-10
2.70217906e-10
2.498812876e-10
2.546372073e-10
2.34919235e-10
2.343150504e-10
2.343234084e-10
2.249936373e-10
2.251574082e-10
2.393772379e-10
2.112246959e-10
1.993367449e-10
1.944330947e-10
1.99879331e-10
1.839435744e-10
1.873487352e-10
1.81639393e-10
1.79591455e-10
1.701054489e-10
1.605976167e-10
1.612507812e-10
1.580349628e-10
1.610864263e-10
1.54512237e-10
1.561895247e-10
1.447832555e-10
1.395151677e-10
1.363598137e-10
1.372784052e-10
1.345370915e-10
1.350624931e-10
1.225929109e-10
1.356527929e-10
1.326040225e-10
7.688073464e-12
1.647286167e-11
2.288370248e-11
3.752263551e-11
3.222604665e-11
6.662300274e-11
6.798249366e-11
1.080656833e-10
9.903695667e-11
1.048624866e-10
1.096242953e-10
1.100260123e-10
1.549553494e-10
1.371764925e-10
1.44132016e-10
1.5671952e-10
1.682398377e-10
1.950847468e-10
2.039063176e-10
1.85990432e-10
1.875843189e-10
2.278367075e-10
2.448097629e-10
2.783341529e-10
2.727639052e-10
2.859591312e-10
2.625541039e-10
2.907681029e-10
2.878933114e-10
2.770131578e-10
3.096544941e-10
2.929087375e-10
3.198616314e-10
3.040369574e-10
3.039923852e-10
3.107361618e-10
3.301517973e-10
3.343335258e-10
3.098631592e-10
3.043203578e-10
3.291490116e-10
3.434579184e-10
3.244264496e-10
2.837860659e-10
3.341609045e-10
3.611820661e-10
3.089631137e-10
2.910384418e-10
3.026373544e-10
2.952979421e-10
2.921624932e-10
2.892987282e-10
2.69704945e-10
3.0816742e-10
2.740077605e-10
2.761571895e-10
2.684457859e-10
2.736454429e-10
2.42824133e-10
2.365898962e-10
2.519936444e-10
2.553796061e-10
2.23357516e-10
2.468191355e-10
2.211654009e-10
2.364082589e-10
2.077161783e-10
2.135074481e-10
2.041813217e-10
1.988585678e-10
1.977570699e-10
1.878312271e-10
1.878559919e-10
1.685699542e-10
1.803772342e-10
1.626310346e-10
1.685839376e-10
1.606503525e-10
1.488781081e-10
1.471344785e-10
1.508126096e-10
1.423497186e-10
1.464689135e-10
1.235050103e-10
1.294372886e-10
1.292457569e-10
1.267242286e-10
1.265386742e-10
1.242714537e-10
1.255600102e-10
4.144750347e-12
1.501071152e-11
2.345545827e-11
3.327067122e-11
4.855119018e-11
5.028311829e-11
8.451024947e-11
6.04761839e-11
9.101532832e-11
1.233266337e-10
1.209359496e-10
1.092208096e-10
1.475363171e-10
1.422424419e-10
1.73473895e-10
1.777454923e-10
1.915321484e-10
2.059191476e-10
2.349582274e-10
2.401324934e-10
2.662090166e-10
2.293379344e-10
2.549643268e-10
2.738398636e-10
2.590801128e-10
2.751160854e-10
2.874261087e-10
3.130693453e-10
3.222611748e-10
2.852229354e-10
2.886187663e-10
3.340303772e-10
3.204017733e-10
3.377655108e-10
3.283447012e-10
3.260271512e-10
3.043707204e-10
3.527795739e-10
2.982087738e-10
3.337864893e-10
3.381202388e-10
3.420575077e-10
3.312036951e-10
3.419179891e-10
3.153568642e-10
3.04509177e-10
3.370219625e-10
3.315609076e-10
3.288702561e-10
3.32226927e-10
3.070744732e-10
3.028788956e-10
2.939392606e-10
3.077531644e-10
2.82263109e-10
2.996599736e-10
2.782723108e-10
3.209083276e-10
2.7317221e-10
2.702154745e-10
2.539106818e-10
2.766818638e-10
2.450166151e-10
2.375360354e-10
2.439290547e-10
2.252243864e-10
2.294584633e-10
2.369849115e-10
2.150200278e-10
1.932362528e-10
1.992845626e-10
1.802265558e-10
1.88551272e-10
1.812679066e-10
1.730200159e-10
1.676219274e-10
1.607516979e-10
1.579419713e-10
1.58653724e-10
1.501172348e-10
1.446412198e-10
1.372687763e-10
1.283601211e-10
1.324255167e-10
1.262071102e-10
1.249123401e-10
1.234606109e-10
1.212035188e-10
1.206277176e-10
1.188332358e-10
2.901599678e-12
1.465339452e-11
2.626662068e-11
4.469813739e-11
5.180258436e-11
7.091537831e-11
7.369144018e-11
1.012742858e-10
1.057046002e-10
1.081229142e-10
1.17269323e-10
1.49335629e-10
1.502237036e-10
1.567490137e-10
1.487128882e-10
1.944605795e-10
1.91900606e-10
2.246390349e-10
2.024875083e-10
2.535886508e-10
2.492890206e-10
2.140076396e-10
3.013383457e-10
2.317273358e-10
2.550849806e-10
2.884641757e-10
2.871816255e-10
2.974266089e-10
3.2068589e-10
3.357769575e-10
3.211499711e-10
3.336970794e-10
3.227232033e-10
3.532965475e-10
3.454229535e-10
3.523874576e-10
3.642213305e-10
3.552506596e-10
3.572151603e-10
3.357111227e-10
3.08945282e-10
3.448237605e-10
3.552281811e-10
3.438118123e-10
3.651763486e-10
3.475729795e-10
3.470527722e-10
3.411877405e-10
3.322756286e-10
3.12356049e-10
3.573800458e-10
3.206291395e-10
3.335076446e-10
3.264664531e-10
2.952706595e-10
2.916392608e-10
2.919623685e-10
2.861001602e-10
2.903671693e-10
2.652641773e-10
2.332454502e-10
2.474295839e-10
2.470794662e-10
2.437400549e-10
2.460919987e-10
2.406585258e-10
2.303186659e-10
2.111380436e-10
2.014492804e-10
2.059558397e-10
1.985436279e-10
1.995943207e-10
1.747450217e-10
1.723569921e-10
1.713829526e-10
1.649830628e-10
1.589831317e-10
1.434088338e-10
1.447149844e-10
1.407806826e-10
1.429883499e-10
1.28662087e-10
1.251813691e-10
1.172374262e-10
1.185563487e-10
1.171394923e-10
1.074140051e-10
1.113490722e-10
1.131255505e-10
9.648858878e-11
4.728767877e-12
2.350679604e-11
4.055720614e-11
4.497285867e-11
5.197910945e-11
6.236254412e-11
7.871158839e-11
1.178365006e-10
1.051209013e-10
1.25863229e-10
1.086134068e-10
1.507458942e-10
1.629101469e-10
1.717696804e-10
1.953569483e-10
2.09582149e-10
1.960042563e-10
2.41327919e-10
2.296785399e-10
2.389124869e-10
3.030795873e-10
2.58909244e-10
2.418361823e-10
2.723786092e-10
3.255939101e-10
3.000541598e-10
3.086958912e-10
3.000979622e-10
3.181646913e-10
3.116758159e-10
3.174241352e-10
3.229382999e-10
3.475527761e-10
3.226295895e-10
3.566842003e-10
3.731142161e-10
3.578131318e-10
3.6645166e-10
3.38886342e-10
3.725391085e-10
4.007509518e-10
3.677797411e-10
3.656610038e-10
3.450020426e-10
3.858626632e-10
3.508822453e-10
3.655625547e-10
3.199381958e-10
3.410521132e-10
3.588851169e-10
3.478579663e-10
3.160629441e-10
3.305637187e-10
3.183454575e-10
3.103981422e-10
3.233925868e-10
3.276816211e-10
2.899937189e-10
2.690778051e-10
2.610590472e-10
2.706678929e-10
2.813478233e-10
2.463603066e-10
2.410625792e-10
2.366650837e-10
2.381048056e-10
2.331259959e-10
2.142611651e-10
2.228804472e-10
2.224765741e-10
1.969594728e-10
1.901467894e-10
1.880955547e-10
1.678929617e-10
1.64223658e-10
1.559249106e-10
1.533283001e-10
1.406271667e-10
1.397470034e-10
1.390267338e-10
1.242080746e-10
1.217395885e-10
1.180677064e-10
1.191896465e-10
1.007601063e-10
9.922895929e-11
1.003739893e-10
9.676873762e-11
9.090514187e-11
8.784234606e-11
1.314989687e-11
1.98333998e-11
2.833711632e-11
6.196610616e-11
5.960850111e-11
8.224077183e-11
1.047003349e-10
8.44042064e-11
1.028126915e-10
1.228660083e-10
1.490360064e-10
1.579204203e-10
1.647403776e-10
2.031993103e-10
2.018098853e-10
2.086917349e-10
2.317381239e-10
2.32887302e-10
2.028750043e-10
2.395997934e-10
3.056027816e-10
2.776965382e-10
2.911475959e-10
3.109373756e-10
3.155060445e-10
3.210528028e-10
3.019833284e-10
3.233741497e-10
3.56341651e-10
3.337399754e-10
3.153673558e-10
3.720728652e-10
3.441893543e-10
3.572899839e-10
3.998783889e-10
3.926089484e-10
3.431438811e-10
3.931725609e-10
3.794430552e-10
3.244531962e-10
3.499597929e-10
3.657252561e-10
4.215436109e-10
3.920494791e-10
4.003222921e-10
3.730287367e-10
3.691241281e-10
3.324646011e-10
3.39289254e-10
3.60491977e-10
3.324557353e-10
3.285723244e-10
3.634862277e-10
3.336594567e-10
2.978585768e-10
2.970634484e-10
3.115772049e-10
2.887626943e-10
2.897889302e-10
2.906940409e-10
2.766319126e-10
2.575285076e-10
2.361049801e-10
2.812343435e-10
2.646999534e-10
2.328167797e-10
2.26673906e-10
2.281877162e-10
2.157911211e-10
2.036519394e-10
2.072077715e-10
1.875861646e-10
1.791733692e-10
1.872276083e-10
1.532262597e-10
1.573912376e-10
1.474061135e-10
1.357748489e-10
1.457315001e-10
1.294560872e-10
1.262754124e-10
1.204267739e-10
1.086328612e-10
1.077894157e-10
9.933733728e-11
9.63207881e-11
8.792609292e-11
7.778678648e-11
7.516112984e-11
8.205341435e-11
5.305241549e-12
2.818764522e-11
2.135813146e-11
3.348053534e-11
6.769900602e-11
7.69782461e-11
7.239874655e-11
1.068090897e-10
1.227727629e-10
1.268481123e-10
1.326997465e-10
1.614629384e-10
2.18999283e-10
1.825328301e-10
1.759327664e-10
1.98196006e-10
1.893602e-10
2.552362062e-10
2.760040914e-10
2.618903411e-10
2.558974539e-10
3.102718743e-10
3.07825506e-10
2.897234572e-10
3.071598092e-10
3.034762202e-10
3.24829939e-10
3.783930364e-10
3.633086566e-10
3.267110779e-10
3.389583124e-10
3.272654121e-10
3.852923784e-10
3.875247002e-10
3.539523839e-10
3.689965137e-10
4.006503668e-10
3.60885636e-10
3.655142264e-10
3.727130953e-10
3.82794319e-10
3.935856995e-10
4.170547978e-10
3.606537747e-10
3.822747254e-10
3.489361906e-10
3.54434614e-10
3.990218339e-10
3.741420907e-10
3.673929178e-10
3.528927642e-10
3.357150191e-10
3.517104492e-10
3.310426797e-10
3.330172716e-10
3.273940308e-10
2.957215987e-10
2.947711993e-10
2.886079431e-10
2.891822757e-10
2.900051625e-10
2.756850565e-10
2.660644977e-10
2.550555028e-10
2.525448669e-10
2.491280047e-10
2.156405184e-10
2.181610817e-10
2.017149369e-10
2.150137017e-10
2.058915876e-10
1.907855276e-10
1.71667954e-10
1.607110309e-10
1.722665909e-10
1.544496871e-10
1.385904108e-10
1.407988086e-10
1.285557215e-10
1.258332921e-10
1.161347586e-10
1.113893923e-10
1.010864868e-10
9.333213403e-11
9.104521516e-11
8.136372519e-11
7.179714412e-11
6.792623019e-11
6.674008968e-11
7.941889668e-11
5.676136361e-12
1.320233193e-11
3.381460209e-11
4.515351115e-11
4.460171304e-11
6.838969262e-11
8.046566523e-11
1.317897649e-10
1.334808177e-10
1.3849164e-10
1.351885423e-10
1.613674855e-10
1.775335329e-10
1.808814091e-10
2.243908427e-10
2.165310042e-10
2.419585332e-10
2.602162645e-10
2.610436734e-10
2.317462416e-10
2.63750959e-10
2.598091619e-10
3.197177174e-10
3.439758081e-10
3.152030559e-10
3.515514327e-10
3.656356097e-10
3.407100124e-10
3.410153922e-10
3.576590587e-10
3.268655406e-10
3.746307655e-10
3.716361731e-10
4.070490572e-10
3.945199763e-10
3.932254638e-10
3.672563684e-10
4.061234806e-10
3.61660842e-10
3.803796933e-10
4.104168387e-10
4.16432546e-10
4.14903205e-10
3.449308546e-10
3.961809546e-10
3.946835436e-10
3.562088886e-10
3.774023089e-10
3.46643803e-10
3.445036633e-10
3.698876697e-10
3.245638451e-10
3.543918183e-10
3.525354133e-10
3.432637658e-10
3.232094489e-10
3.247024708e-10
2.889913753e-10
2.958186958e-10
3.073821418e-10
2.93733321e-10
2.730971326e-10
2.499575154e-10
2.608888959e-10
2.32880146e-10
2.561068508e-10
2.217937697e-10
2.152789472e-10
2.050835966e-10
1.986515087e-10
1.932621088e-10
1.881811566e-10
1.690681351e-10
1.643914113e-10
1.517639907e-10
1.48404188e-10
1.373523073e-10
1.333694718e-10
1.242645218e-10
1.149655238e-10
1.112511661e-10
1.010496143e-10
1.000657966e-10
8.296662237e-11
7.909881962e-11
7.429981088e-11
6.581391389e-11
6.555278264e-11
5.328542534e-11
8.657348656e-11
1.97550952e-12
2.831448076e-11
4.630276374e-11
4.016917044e-11
7.233238964e-11
8.278911603e-11
9.138729531e-11
1.144978465e-10
1.597623977e-10
1.254626251e-10
1.452330434e-10
1.532709453e-10
1.766196884e-10
1.942570708e-10
1.988351112e-10
2.344912928e-10
1.995018218e-10
2.427953848e-10
2.68088381e-10
2.641037386e-10
2.799053771e-10
2.986589059e-10
3.000926641e-10
3.559821818e-10
3.114064638e-10
3.215746422e-10
3.882271742e-10
3.491911051e-10
4.194893012e-10
3.713972927e-10
4.234889053e-10
3.753185108e-10
3.758271256e-10
3.461374314e-10
3.997947772e-10
4.379070242e-10
4.269920649e-10
3.892480958e-10
4.439361566e-10
4.515292056e-10
4.506313828e-10
3.984441669e-10
4.291025053e-10
3.513292314e-10
4.07634414e-10
3.623461485e-10
3.643966276e-10
4.026998843e-10
3.813357436e-10
4.015568039e-10
3.78250386e-10
3.557414259e-10
3.388437688e-10
3.477736686e-10
3.441739212e-10
3.328977863e-10
3.187801061e-10
3.568712076e-10
3.065797231e-10
2.91178788e-10
2.962155545e-10
2.741774512e-10
2.349748287e-10
2.459897032e-10
2.466599996e-10
2.426496731e-10
2.171297016e-10
2.333119998e-10
2.231059706e-10
1.984204931e-10
1.807444607e-10
1.863985777e-10
1.783939362e-10
1.628990824e-10
1.597872643e-10
1.432956609e-10
1.279787418e-10
1.314614972e-10
1.269882132e-10
1.141134236e-10
9.961068956e-11
9.065412777e-11
9.191032302e-11
8.11809106e-11
7.890215568e-11
6.559299249e-11
6.500653014e-11
5.223811939e-11
4.933359332e-11
8.264802994e-11
8.525632574e-12
2.552498277e-11
3.993764503e-11
6.224613914e-11
4.972054477e-11
1.028758789e-10
1.009032439e-10
8.95450189e-11
1.306335335e-10
1.479986799e-10
1.500741094e-10
2.035146809e-10
1.769026019e-10
2.027481952e-10
1.998653688e-10
2.358756381e-10
2.558973458e-10
2.844936613e-10
2.914660113e-10
3.238318168e-10
3.153669963e-10
2.803830598e-10
2.803649563e-10
2.992126515e-10
3.380018031e-10
3.28219095e-10
3.584154145e-10
3.62631119e-10
3.947072549e-10
4.106089722e-10
3.611622008e-10
3.448162839e-10
4.410170267e-10
3.920630653e-10
4.144079238e-10
4.173082579e-10
3.726537781e-10
4.102425606e-10
3.809097297e-10
4.27795485e-10
4.404604995e-10
4.169143663e-10
4.148957709e-10
3.927675539e-10
4.048546548e-10
3.289868988e-10
4.131804934e-10
3.987112546e-10
4.194680223e-10
4.045819157e-10
3.746245767e-10
4.347863034e-10
3.548842839e-10
3.790735438e-10
3.429304966e-10
3.239533369e-10
3.293703845e-10
3.12922543e-10
3.009801706e-10
2.952027702e-10
2.812017023e-10
3.011710727e-10
2.603378094e-10
2.413726406e-10
2.480409557e-10
2.233702833e-10
2.219470109e-10
2.307220885e-10
2.129900781e-10
1.912247648e-10
1.932502816e-10
1.642860716e-10
1.756542683e-10
1.735185063e-10
1.602526754e-10
1.449662835e-10
1.30485023e-10
1.26439399e-10
1.221596672e-10
1.056167565e-10
1.052020082e-10
9.369230846e-11
8.309724816e-11
7.446054495e-11
7.371080261e-11
6.29127896e-11
5.862820072e-11
5.06321018e-11
4.176149534e-11
8.600941161e-11
2.241094454e-12
2.058454349e-11
5.31024219e-11
4.560354925e-11
6.402909061e-11
1.137184914e-10
1.100992042e-10
9.466220172e-11
1.733589119e-10
1.541859686e-10
1.956930686e-10
1.642621208e-10
1.877375006e-10
2.380180768e-10
2.164962124e-10
2.50781725e-10
2.839632724e-10
2.71000446e-10
2.70835897e-10
3.165775679e-10
2.987959171e-10
3.299377083e-10
3.392732761e-10
3.555395156e-10
3.519040612e-10
3.378951691e-10
3.895628661e-10
4.195763792e-10
3.799281872e-10
3.944926173e-10
3.807472772e-10
4.430273147e-10
4.209670221e-10
4.154163773e-10
4.430819003e-10
3.60053206e-10
4.337087899e-10
4.402980649e-10
4.270614383e-10
4.190090301e-10
4.028258694e-10
4.02160556e-10
4.189669738e-10
3.884864273e-10
4.385144545e-10
4.011240821e-10
3.905708828e-10
4.054405321e-10
3.689862759e-10
3.757611034e-10
3.748990187e-10
3.478236137e-10
3.611721458e-10
3.899213503e-10
3.557976497e-10
3.034210236e-10
3.738302545e-10
3.020002948e-10
3.076354085e-10
3.02701527e-10
2.897371144e-10
2.984595068e-10
2.610043831e-10
2.694614346e-10
2.711237232e-10
2.485292387e-10
2.108902221e-10
2.139476887e-10
2.215234783e-10
2.023600855e-10
1.918309283e-10
1.968765712e-10
1.782716149e-10
1.837265288e-10
1.511541131e-10
1.442605064e-10
1.374630384e-10
1.306085596e-10
1.089939814e-10
1.120302381e-10
1.121624663e-10
8.853667217e-11
7.446256574e-11
8.179296e-11
6.563895216e-11
5.757566963e-11
5.553479733e-11
4.459442871e-11
4.542857449e-11
8.225170693e-11
2.640238827e-11
2.436386824e-11
5.409046453e-11
5.602096708e-11
4.642001047e-11
8.133948564e-11
1.23269384e-10
1.408972346e-10
1.544723659e-10
1.858546452e-10
2.025933851e-10
1.66660997e-10
2.093462561e-10
2.598895138e-10
2.369666632e-10
2.591823378e-10
2.880222041e-10
2.999900694e-10
3.080959263e-10
3.101506804e-10
3.425973318e-10
3.206403892e-10
3.397958123e-10
3.227731174e-10
3.979022784e-10
3.705617038e-10
3.642343024e-10
3.644018598e-10
3.784207218e-10
4.380838631e-10
4.014808302e-10
3.830916993e-10
4.295404489e-10
3.94369139e-10
4.062838707e-10
4.371172343e-10
3.95756396e-10
3.706009101e-10
4.609690641e-10
3.838654637e-10
4.327928916e-10
4.515047078e-10
4.034130136e-10
5.01546684e-10
3.965439759e-10
3.860504886e-10
4.386689321e-10
4.219092274e-10
4.139988664e-10
3.940466382e-10
3.975444158e-10
3.813227803e-10
3.576634912e-10
3.589216933e-10
3.573069653e-10
3.385968308e-10
3.325170449e-10
3.304806997e-10
3.538462081e-10
3.281315481e-10
2.883558319e-10
3.049171563e-10
2.656833507e-10
2.662061249e-10
2.695875824e-10
2.67007801e-10
2.444740209e-10
2.285935358e-10
2.278185831e-10
2.095103734e-10
1.876944914e-10
1.850681458e-10
1.688083516e-10
1.683053432e-10
1.580130284e-10
1.571353961e-10
1.37776324e-10
1.495761702e-10
1.182479239e-10
1.11015236e-10
9.951146623e-11
9.284458953e-11
8.403633549e-11
7.918399382e-11
7.056738628e-11
5.683447833e-11
5.165513411e-11
4.266142143e-11
6.687298954e-11
8.135336937e-11
2.554297281e-12
1.545333957e-11
4.811289639e-11
7.484933647e-11
9.388937198e-11
9.937404851e-11
1.17732837e-10
1.215052505e-10
1.696851236e-10
1.633080431e-10
2.052076245e-10
1.577500919e-10
2.026061495e-10
2.330714698e-10
2.633058409e-10
2.401670387e-10
2.592095275e-10
2.915513184e-10
2.862272219e-10
3.208663672e-10
3.373843031e-10
3.050372882e-10
3.55588726e-10
3.717174772e-10
4.104200175e-10
3.865351613e-10
3.910071101e-10
3.870758203e-10
4.247166868e-10
4.326941215e-10
3.949925972e-10
4.588857134e-10
4.256727608e-10
4.650765057e-10
4.291600433e-10
4.436994228e-10
3.804786265e-10
4.395853364e-10
4.67008469e-10
4.487307646e-10
4.454395418e-10
4.194666315e-10
4.407166996e-10
3.838079686e-10
4.363710479e-10
4.196002878e-10
4.179635785e-10
4.345649578e-10
4.136451395e-10
4.313691937e-10
3.933101664e-10
3.787529889e-10
3.479065674e-10
3.769410189e-10
3.539113472e-10
3.43655867e-10
3.791998288e-10
3.199993639e-10
3.578879863e-10
3.211041246e-10
3.230554443e-10
3.120960576e-10
2.894679422e-10
2.652769311e-10
2.70789378e-10
2.531785419e-10
2.485741746e-10
2.228453606e-10
2.215722381e-10
2.238934241e-10
2.203679374e-10
1.977336063e-10
1.79924032e-10
1.802736356e-10
1.664536081e-10
1.62684546e-10
1.39352248e-10
1.335025408e-10
1.306773804e-10
1.176974896e-10
1.125193475e-10
1.05884707e-10
8.824038024e-11
7.718558556e-11
7.134095065e-11
6.252199894e-11
5.415865763e-11
4.510063067e-11
1.098864171e-10
6.548176182e-11
5.630077763e-12
3.534684653e-11
6.00901833e-11
6.173217558e-11
9.151056657e-11
1.057352362e-10
1.165027166e-10
1.419127131e-10
1.806822798e-10
1.540917424e-10
2.061716463e-10
2.104040736e-10
2.185284246e-10
2.415008858e-10
2.778390879e-10
2.785713446e-10
2.756751541e-10
2.788817159e-10
2.911764276e-10
3.215461249e-10
3.307401521e-10
3.293945546e-10
3.51482486e-10
3.248765927e-10
3.89218706e-10
3.946311706e-10
4.214471389e-10
4.10080207e-10
3.395657792e-10
3.740217068e-10
4.557341061e-10
4.615328735e-10
4.058114733e-10
4.06995385e-10
4.023702053e-10
4.679923249e-10
5.069108059e-10
4.473591552e-10
4.252130784e-10
4.030242638e-10
3.868413001e-10
3.978460323e-10
4.054970446e-10
4.073104788e-10
4.282958454e-10
4.290283375e-10
4.174866888e-10
4.476853061e-10
4.144351546e-10
4.134004184e-10
4.013048866e-10
3.664674781e-10
3.731201689e-10
3.723633806e-10
3.67122763e-10
4.036313492e-10
3.635749027e-10
3.282113743e-10
3.381459434e-10
3.177755872e-10
2.820384892e-10
2.769420949e-10
2.907599789e-10
2.676314722e-10
2.81914524e-10
2.58759314e-10
2.440034799e-10
2.220440956e-10
2.062804814e-10
2.220139564e-10
2.077621559e-10
2.064940892e-10
1.988905204e-10
1.756843208e-10
1.717658491e-10
1.599215221e-10
1.520513276e-10
1.481761272e-10
1.32174166e-10
1.248943175e-10
1.114681615e-10
9.838616458e-11
9.952473583e-11
8.506881856e-11
6.976834915e-11
6.631248142e-11
5.785736412e-11
7.546917059e-11
1.417945215e-10
7.081450606e-11
2.961432098e-12
3.802521634e-11
5.843693061e-11
7.691107089e-11
7.705432696e-11
6.777930765e-11
7.791184335e-11
1.438074029e-10
1.22652886e-10
1.58342815e-10
1.815829259e-10
1.647254244e-10
1.904083344e-10
2.098278024e-10
2.920363689e-10
2.64666806e-10
3.032705699e-10
3.143495622e-10
3.728982918e-10
2.73594468e-10
3.112315069e-10
3.721987529e-10
3.61789e-10
3.713268854e-10
3.79167379e-10
4.052807586e-10
3.801745516e-10
4.241922954e-10
4.130398729e-10
4.382939551e-10
4.401831733e-10
3.58013327e-10
4.654532177e-10
4.195335919e-10
4.499953501e-10
4.238004333e-10
4.669502541e-10
4.277943281e-10
4.815300943e-10
4.233098394e-10
4.315409295e-10
4.39472822e-10
4.541407873e-10
4.132923031e-10
4.277001423e-10
4.66367897e-10
4.422102172e-10
3.988845065e-10
4.234040817e-10
3.835786904e-10
3.921714345e-10
4.273748797e-10
3.822510051e-10
3.848558681e-10
3.997368427e-10
3.522890667e-10
3.334569471e-10
3.374612166e-10
3.470341339e-10
3.151424715e-10
3.179538854e-10
3.284268644e-10
3.087105835e-10
2.986552135e-10
2.775433043e-10
2.753674055e-10
2.325439962e-10
2.463802199e-10
2.302773818e-10
2.180978132e-10
2.303045576e-10
1.961466105e-10
1.976860709e-10
2.023524775e-10
1.876892866e-10
1.571379056e-10
1.620060288e-10
1.498869378e-10
1.453168702e-10
1.327652888e-10
1.294552068e-10
1.152842909e-10
9.627824181e-11
9.433585118e-11
8.35703214e-11
7.45724151e-11
6.245437398e-11
1.628986056e-10
1.474539671e-10
9.40930592e-11
0
2.8406027e-11
3.482337473e-11
6.931872081e-11
5.7535405e-11
1.215800991e-10
8.545650774e-11
1.297371625e-10
1.42045644e-10
1.865740245e-10
1.849923279e-10
2.209221545e-10
2.064711149e-10
2.462391573e-10
2.629850705e-10
2.494030808e-10
3.029630521e-10
3.108378364e-10
3.414635134e-10
3.45767103e-10
3.790491384e-10
3.14006657e-10
3.428494717e-10
3.952736728e-10
3.84114477e-10
3.976687522e-10
4.071362089e-10
3.790842255e-10
4.449429735e-10
4.176006289e-10
4.384015641e-10
4.874729309e-10
4.209634708e-10
4.674251812e-10
4.468610718e-10
4.488712044e-10
4.773229751e-10
4.823169712e-10
4.48491993e-10
4.406236524e-10
4.874272404e-10
4.640729543e-10
3.947141563e-10
4.667294615e-10
4.911447774e-10
4.259960427e-10
4.318223635e-10
4.895053099e-10
4.37155998e-10
3.851196362e-10
4.151584677e-10
3.758468127e-10
4.106667859e-10
4.167356356e-10
3.770079075e-10
3.653538773e-10
3.156203042e-10
3.345718358e-10
3.260214667e-10
3.06607336e-10
3.063448339e-10
3.070326421e-10
2.999756377e-10
2.830810933e-10
2.726017776e-10
2.709056172e-10
2.74100754e-10
2.600738439e-10
2.49754468e-10
2.292500386e-10
2.250695743e-10
2.129439107e-10
1.928791257e-10
1.934908113e-10
2.000533188e-10
1.800504439e-10
1.6156459e-10
1.640447505e-10
1.481955326e-10
1.336356745e-10
1.261973797e-10
1.177218616e-10
1.12124366e-10
8.923036505e-11
9.76535781e-11
8.140017221e-11
1.608325735e-10
2.721263155e-10
1.607047009e-10
1.38014222e-10
1.014941243e-11
3.665576936e-11
3.690237872e-11
6.413504461e-11
8.487834739e-11
9.176982781e-11
1.489068759e-10
1.451617055e-10
1.543128415e-10
1.349106762e-10
2.10648862e-10
1.956528298e-10
3.049837924e-10
2.171155365e-10
2.96761079e-10
2.394606092e-10
3.467938804e-10
3.123482762e-10
3.288919613e-10
3.663243524e-10
3.535733765e-10
3.743091543e-10
3.65908099e-10
3.463937229e-10
4.294555535e-10
3.635878163e-10
3.591749341e-10
4.278812541e-10
4.537797501e-10
3.671700816e-10
4.740022149e-10
4.484062013e-10
4.754740426e-10
4.959226332e-10
5.159589585e-10
4.817561249e-10
4.987564823e-10
4.285039753e-10
4.353371855e-10
4.483805617e-10
4.545469154e-10
4.911288335e-10
4.397032966e-10
5.207966451e-10
4.46694374e-10
4.507383331e-10
4.793782582e-10
3.943819539e-10
3.889720396e-10
3.662148233e-10
3.994757934e-10
4.028678018e-10
4.011466837e-10
4.178547395e-10
3.917446308e-10
4.018355402e-10
4.093090525e-10
3.256085723e-10
3.196022282e-10
3.330166469e-10
3.013756799e-10
3.056040847e-10
2.817544291e-10
3.055834449e-10
2.636438922e-10
2.876752836e-10
2.779545488e-10
2.739464782e-10
2.468255569e-10
2.355765218e-10
2.211750329e-10
2.275305728e-10
2.150946852e-10
1.940749451e-10
1.810334147e-10
1.789351168e-10
1.780635038e-10
1.599448949e-10
1.644625263e-10
1.417748765e-10
1.353101365e-10
1.113723145e-10
1.189052934e-10
1.109356759e-10
9.490025481e-11
1.558494479e-10
3.949709802e-10
3.057692531e-10
1.974553581e-10
2.31888969e-10
2.186125799e-11
3.710931822e-11
2.199721037e-11
5.061214496e-11
6.522665073e-11
9.451868625e-11
1.661959784e-10
1.226540258e-10
1.656630577e-10
1.886122675e-10
2.010418051e-10
1.637255919e-10
2.481296073e-10
2.663121647e-10
2.587710372e-10
3.181422798e-10
2.9890771e-10
3.134817167e-10
3.297044221e-10
3.010538812e-10
3.755298471e-10
3.848253638e-10
3.770930584e-10
4.028732384e-10
4.68111372e-10
4.075085754e-10
3.818986784e-10
4.226827504e-10
4.610102866e-10
4.434658952e-10
4.554667588e-10
4.948912091e-10
4.188864388e-10
4.930052527e-10
4.977241051e-10
5.063411783e-10
4.287269282e-10
4.906415104e-10
4.670789849e-10
4.570562573e-10
4.784572487e-10
4.840755384e-10
4.956665883e-10
4.746839384e-10
5.033280066e-10
4.965323708e-10
4.805597164e-10
4.117039921e-10
4.367020283e-10
4.64683573e-10
4.261564538e-10
3.990128756e-10
3.98946469e-10
3.946261194e-10
3.597342786e-10
3.612424777e-10
4.021679748e-10
3.604978094e-10
3.434619892e-10
3.975436152e-10
3.356175771e-10
3.430776487e-10
2.915523908e-10
3.226812014e-10
3.172670839e-10
3.275205503e-10
2.553799199e-10
2.535012914e-10
2.500167962e-10
2.467640344e-10
2.681548379e-10
2.251518751e-10
2.413133343e-10
2.034150688e-10
2.11482566e-10
1.935092198e-10
1.753783078e-10
1.737759817e-10
1.646467759e-10
1.473964824e-10
1.518167699e-10
1.411345728e-10
1.32625066e-10
1.227190486e-10
1.901572476e-10
4.970979226e-10
5.010240234e-10
2.489904898e-10
2.506443594e-10
3.49324817e-10
3.85786764e-12
3.667923799e-11
3.093627597e-11
7.176695712e-11
8.08357767e-11
8.933577365e-11
1.121995886e-10
1.69397905e-10
1.773602567e-10
1.443001032e-10
2.073122747e-10
1.890966883e-10
2.483591784e-10
2.640748469e-10
2.399187498e-10
2.69595451e-10
3.195905255e-10
3.359883107e-10
2.942723949e-10
3.33583555e-10
3.78704986e-10
3.828411989e-10
3.908758431e-10
4.372267349e-10
3.980803214e-10
4.430962158e-10
4.469073655e-10
4.68677627e-10
4.115845971e-10
4.860978389e-10