/*--------------------------------*- C++ -*----------------------------------*\
| =========                 |                                                 |
| \\      /  F ield         | OpenFOAM: The Open Source CFD Toolbox           |
|  \\    /   O peration     | Version:  2206                                  |
|   \\  /    A nd           | Website:  www.openfoam.com                      |
|    \\/     M anipulation  |                                                 |
\*---------------------------------------------------------------------------*/
FoamFile
{
    version     2.0;
    format      ascii;
    arch        "LSB;label=32;scalar=64";
    class       volScalarField::Internal;
    location    "0.01";
    object      reactingCloud1:UCoeff;
}
// * * * * * * * * * * * * * * * * * * * * * * * * * * * * * * * * * * * * * //

dimensions      [1 0 0 0 0 0 0];

value           nonuniform List<scalar> 
18900
(
3.807142315e-15
1.318710565e-14
1.715161144e-14
2.952088339e-14
3.464563244e-14
4.214917069e-14
6.905115451e-14
4.776672313e-14
5.07778115e-14
7.511907484e-14
8.121792089e-14
8.854182004e-14
1.045104206e-13
1.275328852e-13
1.088814636e-13
1.12351057e-13
1.161010284e-13
1.282093565e-13
1.546190502e-13
1.247389822e-13
1.52828541e-13
1.498073023e-13
1.714731045e-13
1.954925109e-13
2.129743553e-13
2.004190638e-13
2.164405318e-13
2.114586572e-13
2.175752411e-13
2.393250165e-13
2.682755684e-13
2.307541481e-13
2.667283472e-13
2.789255338e-13
2.673316392e-13
2.761999954e-13
2.698059364e-13
3.194498359e-13
3.300277919e-13
3.607767622e-13
3.296503892e-13
3.296272504e-13
3.756563027e-13
3.515601637e-13
3.96335117e-13
3.622684784e-13
3.925097956e-13
3.598254397e-13
4.45438933e-13
3.862940561e-13
4.150593385e-13
4.188097113e-13
4.539992813e-13
4.416128552e-13
4.233413399e-13
4.854221851e-13
4.466357253e-13
4.824137679e-13
4.964959203e-13
5.12892512e-13
4.759494458e-13
5.367270088e-13
5.363647983e-13
5.566837789e-13
5.121163041e-13
5.634293399e-13
5.439197983e-13
5.745817934e-13
6.119386529e-13
5.200487388e-13
5.591387006e-13
5.706969505e-13
5.853331426e-13
5.735447383e-13
5.835554049e-13
6.422372353e-13
6.638221668e-13
6.133488436e-13
6.435059015e-13
6.088690333e-13
6.344022437e-13
6.956419757e-13
6.833028788e-13
6.544354965e-13
6.393629252e-13
6.777331163e-13
6.348830858e-13
6.498190815e-13
6.96061072e-13
7.304420689e-13
3.454099534e-15
1.402172179e-14
2.151670402e-14
2.720893025e-14
4.596319353e-14
5.666345117e-14
7.148762176e-14
7.159343998e-14
6.581439094e-14
7.708879382e-14
9.610617509e-14
1.110222719e-13
8.721539729e-14
1.095460908e-13
1.402493249e-13
1.490218126e-13
1.565367925e-13
1.754172313e-13
1.949391496e-13
2.045681712e-13
2.164813617e-13
2.346126338e-13
2.354693368e-13
2.480016422e-13
2.795721761e-13
2.804494766e-13
2.971752377e-13
3.160454119e-13
3.258265697e-13
3.200246004e-13
3.393181848e-13
3.52446096e-13
3.450493747e-13
3.746088585e-13
4.251034713e-13
3.979252364e-13
4.041490299e-13
4.474412027e-13
4.503798627e-13
4.416004091e-13
4.488893477e-13
4.758102362e-13
4.59160475e-13
4.815643268e-13
4.53240535e-13
5.207683778e-13
5.494295092e-13
5.545451481e-13
5.319383117e-13
5.893273222e-13
5.708474349e-13
5.919234658e-13
6.51635309e-13
6.120926917e-13
6.071474457e-13
6.26238195e-13
6.534450411e-13
6.890480966e-13
6.942929678e-13
7.342334543e-13
7.227801658e-13
7.218749719e-13
7.546752605e-13
7.258792771e-13
7.936997576e-13
7.357173567e-13
7.56938081e-13
7.575468975e-13
7.638447427e-13
7.757743803e-13
7.915143651e-13
7.71586637e-13
8.131936982e-13
8.228116189e-13
7.816167566e-13
8.032012132e-13
8.266513536e-13
8.399929479e-13
8.905356542e-13
8.260607069e-13
8.649215005e-13
8.952166962e-13
8.833528953e-13
8.96695368e-13
8.447349755e-13
8.625318375e-13
8.546278844e-13
8.721215115e-13
8.745336663e-13
8.529149616e-13
1.126739819e-15
1.618903336e-14
2.574814198e-14
3.733281589e-14
3.797025665e-14
4.9184869e-14
6.031856208e-14
8.715567735e-14
8.131125666e-14
8.917573462e-14
1.156670411e-13
1.386966217e-13
1.423053343e-13
1.56172168e-13
1.763458895e-13
1.813447011e-13
1.799414195e-13
2.045260554e-13
2.175149151e-13
2.108996942e-13
2.367155189e-13
3.001589009e-13
2.503187875e-13
2.84223929e-13
2.975425223e-13
2.93288695e-13
2.865998042e-13
3.280800305e-13
4.032449754e-13
3.855190672e-13
3.464959674e-13
3.756752124e-13
4.424946348e-13
3.877907136e-13
4.557298321e-13
4.462426145e-13
5.107739665e-13
4.690806198e-13
4.794285444e-13
5.254316003e-13
5.471984039e-13
5.314739399e-13
5.742122785e-13
5.600621252e-13
5.700651325e-13
5.488814857e-13
6.381272271e-13
6.027225293e-13
6.145140169e-13
6.306632761e-13
6.891412805e-13
6.504415233e-13
6.705025348e-13
7.244901186e-13
7.28948049e-13
7.410218013e-13
7.305492516e-13
8.058631647e-13
7.716481615e-13
8.148644506e-13
7.781403534e-13
8.032978987e-13
8.327826851e-13
8.276624336e-13
8.590707096e-13
9.47264798e-13
8.647773761e-13
8.477778942e-13
8.554361538e-13
9.118564528e-13
8.676142435e-13
9.158192244e-13
9.170319e-13
9.378897463e-13
9.180309337e-13
8.947590133e-13
9.27359965e-13
9.385980744e-13
9.85740183e-13
9.68748561e-13
1.006862882e-12
9.572939654e-13
9.441609598e-13
9.412306913e-13
9.651259581e-13
9.630361149e-13
9.780529613e-13
8.963852313e-13
1.001594033e-12
9.817228626e-13
7.469802797e-15
1.594384486e-14
2.207567209e-14
3.647287113e-14
3.133702115e-14
6.518427119e-14
6.704466932e-14
1.071357353e-13
9.925550818e-14
1.05497816e-13
1.115796779e-13
1.130515331e-13
1.607377988e-13
1.439780321e-13
1.527216084e-13
1.684686237e-13
1.834862865e-13
2.157110334e-13
2.286978678e-13
2.122993732e-13
2.173769642e-13
2.682581075e-13
2.936087739e-13
3.393007884e-13
3.389098894e-13
3.625924806e-13
3.388979859e-13
3.831542978e-13
3.876346515e-13
3.805879138e-13
4.343761906e-13
4.210274564e-13
4.707087141e-13
4.575938336e-13
4.685666035e-13
4.923042477e-13
5.356040394e-13
5.567378694e-13
5.300141989e-13
5.345513315e-13
5.949673245e-13
6.38370415e-13
6.201493724e-13
5.574698757e-13
6.774867735e-13
7.551847353e-13
6.655064631e-13
6.465768207e-13
6.939138318e-13
6.997898219e-13
7.146527223e-13
7.315843616e-13
7.055087672e-13
8.338380344e-13
7.671827728e-13
8.005038465e-13
8.049789402e-13
8.518595776e-13
7.809768347e-13
7.886746811e-13
8.704408668e-13
9.150960976e-13
8.32376065e-13
9.529985408e-13
8.873202642e-13
9.834889965e-13
8.967048333e-13
9.549811292e-13
9.495990065e-13
9.580907514e-13
9.890172745e-13
9.725135705e-13
1.008238105e-12
9.384362446e-13
1.039563763e-12
9.683089417e-13
1.04010128e-12
1.024277364e-12
9.796466869e-13
9.983490989e-13
1.055567433e-12
1.021971249e-12
1.080234096e-12
9.344267477e-13
1.000809261e-12
1.022179656e-12
1.015032908e-12
1.03159121e-12
1.023818908e-12
1.04231944e-12
4.006101309e-15
1.4647371e-14
2.282653076e-14
3.263326021e-14
4.781497553e-14
4.957621426e-14
8.398053402e-14
6.059199445e-14
9.157610301e-14
1.256045643e-13
1.244169897e-13
1.129867352e-13
1.551255234e-13
1.510097281e-13
1.86641968e-13
1.937035225e-13
2.119793163e-13
2.313541796e-13
2.674050129e-13
2.780014983e-13
3.133896181e-13
2.746036628e-13
3.107314107e-13
3.397793038e-13
3.277059283e-13
3.547604402e-13
3.777853101e-13
4.207776325e-13
4.421795735e-13
3.994278427e-13
4.14222729e-13
4.908762419e-13
4.814656459e-13
5.196845099e-13
5.190005624e-13
5.284737729e-13
5.058402089e-13
6.024219285e-13
5.226263614e-13
6.009222282e-13
6.271567785e-13
6.538108256e-13
6.510261769e-13
6.926136365e-13
6.585081879e-13
6.549170377e-13
7.47182184e-13
7.587110064e-13
7.772581569e-13
8.115365412e-13
7.743829119e-13
7.897767374e-13
7.943554447e-13
8.622144531e-13
8.179086821e-13
9.002269214e-13
8.66586663e-13
1.036400647e-12
9.158351006e-13
9.385635717e-13
9.144014523e-13
1.034751923e-12
9.502667253e-13
9.577088409e-13
1.023064956e-12
9.829785718e-13
1.039694029e-12
1.115390106e-12
1.05223587e-12
9.846941761e-13
1.05275854e-12
9.908588773e-13
1.076218777e-12
1.074550838e-12
1.066499722e-12
1.073209275e-12
1.064158272e-12
1.087073867e-12
1.132086113e-12
1.109533459e-12
1.103417603e-12
1.082494382e-12
1.046910357e-12
1.110859227e-12
1.090478601e-12
1.111588901e-12
1.124287126e-12
1.12739665e-12
1.148875489e-12
1.146199079e-12
2.837626368e-15
1.431332368e-14
2.574735429e-14
4.407044129e-14
5.11610362e-14
7.05234462e-14
7.399364962e-14
1.020400579e-13
1.075570911e-13
1.109050924e-13
1.21380539e-13
1.567453099e-13
1.594144645e-13
1.684616445e-13
1.614410305e-13
2.144445103e-13
2.144137545e-13
2.549924967e-13
2.335734937e-13
2.97322422e-13
2.974143808e-13
2.593355328e-13
3.72290304e-13
2.917192868e-13
3.27195415e-13
3.779454536e-13
3.833423312e-13
4.055914073e-13
4.468445176e-13
4.781726924e-13
4.684069409e-13
4.979681468e-13
4.941903914e-13
5.545609391e-13
5.560741433e-13
5.815233416e-13
6.171163055e-13
6.181316802e-13
6.38106e-13
6.17542218e-13
5.848597579e-13
6.731792712e-13
7.13429218e-13
7.119436392e-13
7.799289473e-13
7.646175624e-13
7.894569985e-13
8.020028451e-13
8.064829553e-13
7.84267023e-13
9.278043704e-13
8.620781763e-13
9.278747872e-13
9.413296857e-13
8.806651196e-13
9.029289459e-13
9.383708329e-13
9.539195935e-13
1.005176664e-12
9.52950672e-13
8.714798264e-13
9.601289184e-13
9.984774614e-13
1.025504776e-12
1.077755434e-12
1.096025953e-12
1.091975429e-12
1.04334867e-12
1.037497611e-12
1.104141191e-12
1.109901376e-12
1.161655942e-12
1.059422367e-12
1.090413223e-12
1.130210039e-12
1.129243789e-12
1.13700016e-12
1.068356979e-12
1.122369055e-12
1.139858033e-12
1.202192026e-12
1.126698321e-12
1.142020887e-12
1.106657328e-12
1.166743597e-12
1.195112767e-12
1.137099044e-12
1.225525281e-12
1.294101151e-12
1.151303952e-12
4.673651136e-15
2.320972227e-14
4.00271356e-14
4.447144805e-14
5.170265925e-14
6.250868248e-14
7.92727737e-14
1.198314215e-13
1.077224723e-13
1.299489433e-13
1.133410164e-13
1.589731755e-13
1.744718929e-13
1.855765238e-13
2.143786628e-13
2.327285741e-13
2.211433357e-13
2.762129494e-13
2.67018024e-13
2.825929577e-13
3.646808835e-13
3.171102139e-13
3.013474366e-13
3.460145354e-13
4.216313388e-13
3.967966672e-13
4.167472095e-13
4.132843152e-13
4.48513535e-13
4.497150208e-13
4.680792454e-13
4.875511585e-13
5.385708405e-13
5.123854864e-13
5.812191533e-13
6.243949987e-13
6.152634547e-13
6.48054171e-13
6.148784393e-13
6.956337783e-13
7.705973187e-13
7.285537982e-13
7.470927569e-13
7.271076048e-13
8.393511197e-13
7.867380678e-13
8.473737104e-13
7.660655781e-13
8.436450564e-13
9.194402698e-13
9.221327394e-13
8.668853685e-13
9.408903341e-13
9.38596231e-13
9.497474351e-13
1.027692442e-12
1.080922496e-12
9.936837868e-13
9.565402182e-13
9.658617331e-13
1.041321218e-12
1.12807493e-12
1.030475202e-12
1.051530594e-12
1.076377944e-12
1.127933096e-12
1.151047844e-12
1.104743915e-12
1.202082362e-12
1.25127482e-12
1.157826391e-12
1.167230467e-12
1.206292583e-12
1.128650646e-12
1.154147162e-12
1.146943251e-12
1.183189498e-12
1.13425483e-12
1.184369783e-12
1.232625715e-12
1.155098965e-12
1.186444174e-12
1.208740059e-12
1.285893556e-12
1.138223017e-12
1.182860161e-12
1.267733654e-12
1.296259926e-12
1.288373564e-12
1.364924548e-12
1.301093185e-14
1.95455673e-14
2.807428007e-14
6.167973854e-14
5.951462437e-14
8.25503921e-14
1.062248664e-13
8.611688075e-14
1.05792399e-13
1.27442632e-13
1.557778013e-13
1.673452035e-13
1.767849311e-13
2.207696748e-13
2.217889829e-13
2.328253746e-13
2.619822788e-13
2.682329438e-13
2.370573786e-13
2.846523128e-13
3.692846312e-13
3.414251302e-13
3.646755582e-13
3.974462991e-13
4.114357438e-13
4.268171208e-13
4.106813211e-13
4.495071417e-13
5.059567026e-13
4.840208571e-13
4.684183895e-13
5.663341644e-13
5.380374144e-13
5.721574176e-13
6.57426784e-13
6.626962858e-13
5.946025906e-13
7.001712804e-13
6.959085422e-13
6.114683129e-13
6.804814821e-13
7.329115223e-13
8.707563802e-13
8.350299634e-13
8.805062223e-13
8.474205281e-13
8.657163101e-13
8.063562803e-13
8.518316885e-13
9.378749527e-13
8.952962452e-13
9.167551621e-13
1.050960034e-12
1.003243531e-12
9.273057985e-13
9.604284701e-13
1.047036208e-12
1.009631551e-12
1.052821313e-12
1.099917104e-12
1.091091515e-12
1.058849989e-12
1.012208233e-12
1.260054882e-12
1.23813647e-12
1.138853177e-12
1.158028859e-12
1.218576038e-12
1.207203268e-12
1.19334624e-12
1.271323606e-12
1.208343349e-12
1.212485392e-12
1.328746416e-12
1.141770967e-12
1.231445389e-12
1.214946055e-12
1.180789931e-12
1.336991264e-12
1.252907229e-12
1.293468785e-12
1.302819765e-12
1.246231937e-12
1.313802954e-12
1.290651823e-12
1.341299592e-12
1.319028207e-12
1.262746278e-12
1.325446855e-12
1.655548132e-12
5.236115118e-15
2.787382817e-14
2.111393719e-14
3.330985622e-14
6.761513187e-14
7.744634333e-14
7.341080504e-14
1.092816691e-13
1.264017216e-13
1.316956745e-13
1.38923875e-13
1.713154456e-13
2.353243452e-13
1.984967517e-13
1.938953134e-13
2.211836405e-13
2.148279297e-13
2.938103665e-13
3.231607003e-13
3.110209188e-13
3.098753565e-13
3.817677048e-13
3.868359977e-13
3.707080694e-13
4.010481874e-13
4.04512043e-13
4.420424172e-13
5.267277459e-13
5.169922787e-13
4.743208477e-13
5.049443993e-13
4.997601289e-13
6.010937484e-13
6.21689823e-13
5.835327467e-13
6.240327026e-13
6.958423222e-13
6.446207229e-13
6.722153595e-13
7.058695259e-13
7.459603093e-13
7.920009474e-13
8.637722738e-13
7.706707654e-13
8.447918944e-13
7.963573513e-13
8.367033047e-13
9.7361828e-13
9.453645094e-13
9.63451208e-13
9.571818854e-13
9.436053169e-13
1.026977602e-12
1.002988269e-12
1.046506208e-12
1.068612931e-12
1.004606212e-12
1.043439775e-12
1.063894732e-12
1.110699063e-12
1.160037559e-12
1.15012961e-12
1.160434489e-12
1.16433252e-12
1.204723758e-12
1.241657531e-12
1.127260391e-12
1.196405437e-12
1.159250548e-12
1.299758073e-12
1.309747475e-12
1.275464169e-12
1.207908213e-12
1.190644767e-12
1.346228933e-12
1.277800558e-12
1.214630535e-12
1.303194965e-12
1.264926035e-12
1.314146123e-12
1.294230619e-12
1.32466167e-12
1.291503725e-12
1.282729217e-12
1.348510139e-12
1.306530342e-12
1.254373053e-12
1.3195353e-12
1.421198096e-12
2.025117426e-12
5.571048319e-15
1.306023065e-14
3.363128013e-14
4.489735751e-14
4.447845434e-14
6.879844118e-14
8.135035847e-14
1.346318715e-13
1.378207942e-13
1.436752107e-13
1.41456782e-13
1.707065821e-13
1.903809811e-13
1.961651955e-13
2.465977509e-13
2.412892961e-13
2.735857628e-13
2.989246957e-13
3.045587523e-13
2.746337697e-13
3.180156531e-13
3.195353767e-13
3.999457237e-13
4.397118309e-13
4.105901799e-13
4.669139996e-13
4.970488324e-13
4.730820809e-13
4.840405111e-13
5.189065044e-13
4.848695509e-13
5.698595972e-13
5.796356729e-13
6.510548542e-13
6.487049098e-13
6.638012164e-13
6.369030606e-13
7.243695585e-13
6.630153365e-13
7.182394085e-13
7.998339487e-13
8.363887595e-13
8.595337019e-13
7.363529174e-13
8.737662787e-13
8.9900176e-13
8.390174544e-13
9.20659419e-13
8.759368646e-13
9.010031917e-13
1.004232314e-12
9.136447795e-13
1.035063806e-12
1.069326015e-12
1.083312923e-12
1.059965089e-12
1.107837317e-12
1.026066497e-12
1.094644889e-12
1.18579773e-12
1.182605491e-12
1.147995682e-12
1.097664466e-12
1.200061513e-12
1.12309e-12
1.293646633e-12
1.17422028e-12
1.197095403e-12
1.200598424e-12
1.221876208e-12
1.253377226e-12
1.289939489e-12
1.221565378e-12
1.256682173e-12
1.228294142e-12
1.274587437e-12
1.256510649e-12
1.302560992e-12
1.292059242e-12
1.282300417e-12
1.330434026e-12
1.301552645e-12
1.394731704e-12
1.25486917e-12
1.302348356e-12
1.34692448e-12
1.308160577e-12
1.471929364e-12
1.336739843e-12
2.748297546e-12
1.961073929e-15
2.803890833e-14
4.596258456e-14
3.97637e-14
7.1933707e-14
8.298283459e-14
9.21758329e-14
1.163097067e-13
1.642494833e-13
1.297353285e-13
1.514165263e-13
1.614388036e-13
1.88362299e-13
2.097225205e-13
2.170837741e-13
2.599141928e-13
2.246698901e-13
2.777226119e-13
3.112846068e-13
3.108201579e-13
3.356769884e-13
3.6443468e-13
3.734916618e-13
4.514036051e-13
4.031995981e-13
4.238017401e-13
5.235959161e-13
4.814942931e-13
5.912559961e-13
5.351109201e-13
6.245008953e-13
5.666093409e-13
5.819470563e-13
5.504077572e-13
6.516738651e-13
7.333817771e-13
7.347684307e-13
6.890213404e-13
8.082559605e-13
8.469218621e-13
8.710324509e-13
7.93468853e-13
8.797275854e-13
7.436150171e-13
8.92058617e-13
8.190439666e-13
8.519355922e-13
9.754471893e-13
9.565729129e-13
1.044757464e-12
1.018807086e-12
9.93874134e-13
9.82814196e-13
1.048140311e-12
1.07794142e-12
1.085479056e-12
1.082984729e-12
1.262768416e-12
1.130073656e-12
1.119286183e-12
1.188388526e-12
1.149746785e-12
1.031884252e-12
1.12925015e-12
1.187657429e-12
1.224430081e-12
1.152281056e-12
1.301366438e-12
1.309479724e-12
1.229314043e-12
1.181857136e-12
1.292079248e-12
1.309061188e-12
1.264002889e-12
1.320652109e-12
1.262030253e-12
1.203081253e-12
1.322643427e-12
1.370659441e-12
1.325055315e-12
1.25159664e-12
1.234314211e-12
1.369667769e-12
1.322622524e-12
1.413941462e-12
1.31473403e-12
1.446086952e-12
1.333562966e-12
1.432228795e-12
3.241882631e-12
8.344640606e-15
2.507573516e-14
3.945315651e-14
6.137482443e-14
4.914983464e-14
1.027402757e-13
1.012802487e-13
9.058870509e-14
1.334012484e-13
1.520519166e-13
1.551078102e-13
2.129580521e-13
1.873041128e-13
2.171691905e-13
2.169768899e-13
2.59508403e-13
2.860309827e-13
3.230889303e-13
3.354471066e-13
3.782912324e-13
3.748364866e-13
3.386091197e-13
3.450447185e-13
3.757231837e-13
4.323075178e-13
4.285049746e-13
4.782745519e-13
4.942021808e-13
5.504982587e-13
5.848517031e-13
5.260760263e-13
5.150271122e-13
6.74982384e-13
6.151188522e-13
6.6680827e-13
6.904418565e-13
6.330081653e-13
7.16189078e-13
6.84213177e-13
7.912035899e-13
8.414724182e-13
8.191223558e-13
8.407946917e-13
8.202983387e-13
8.764101847e-13
7.336256768e-13
9.525733321e-13
9.536096816e-13
1.039216514e-12
1.039374979e-12
9.962723039e-13
1.198664773e-12
1.016223364e-12
1.127740057e-12
1.058621395e-12
1.041150055e-12
1.103957768e-12
1.091456586e-12
1.095829775e-12
1.120797573e-12
1.115439867e-12
1.247616326e-12
1.128117408e-12
1.095787436e-12
1.182206272e-12
1.11654216e-12
1.167566059e-12
1.277172487e-12
1.243048591e-12
1.178087874e-12
1.257529016e-12
1.132753012e-12
1.285733155e-12
1.345873741e-12
1.325116264e-12
1.279992094e-12
1.235556882e-12
1.283329622e-12
1.337360915e-12
1.25128317e-12
1.352118534e-12
1.31951762e-12
1.285717647e-12
1.273822143e-12
1.400520433e-12
1.35186583e-12
1.409385515e-12
1.432873992e-12
1.39041797e-12
4.068857231e-12
2.211266305e-15
2.010142107e-14
5.213731952e-14
4.467551114e-14
6.278273324e-14
1.12434395e-13
1.096871152e-13
9.474522123e-14
1.757568241e-13
1.572046153e-13
2.007979312e-13
1.698983715e-13
1.969350031e-13
2.527384807e-13
2.320040676e-13
2.728970642e-13
3.141271633e-13
3.03919659e-13
3.077823706e-13
3.657197884e-13
3.506856233e-13
3.931395807e-13
4.123528618e-13
4.406942203e-13
4.4394448e-13
4.350913455e-13
5.126480454e-13
5.644687848e-13
5.216698978e-13
5.54251789e-13
5.467142178e-13
6.512671104e-13
6.339105366e-13
6.416933477e-13
7.012730344e-13
5.848616336e-13
7.234023017e-13
7.560354767e-13
7.54323128e-13
7.612985377e-13
7.551182677e-13
7.76849686e-13
8.334860296e-13
7.972253468e-13
9.294116596e-13
8.787464263e-13
8.8464261e-13
9.503362435e-13
8.950375889e-13
9.445495558e-13
9.767952977e-13
9.398879254e-13
1.012948027e-12
1.13741358e-12
1.079501283e-12
9.564044296e-13
1.226395296e-12
1.032961004e-12
1.09716631e-12
1.126170545e-12
1.125129605e-12
1.210219257e-12
1.107563432e-12
1.198804474e-12
1.266484673e-12
1.217530472e-12
1.085250218e-12
1.160052481e-12
1.266554822e-12
1.219965866e-12
1.225112587e-12
1.333424906e-12
1.280823554e-12
1.403184733e-12
1.229480156e-12
1.25986903e-12
1.286504924e-12
1.316475808e-12
1.184407713e-12
1.321508143e-12
1.444832322e-12
1.250439987e-12
1.160539838e-12
1.419446567e-12
1.274002992e-12
1.275180626e-12
1.395788135e-12
1.342077555e-12
1.638016632e-12
4.447201396e-12
2.557440435e-14
2.360499978e-14
5.272934533e-14
5.427739743e-14
4.509906017e-14
7.966612286e-14
1.214857993e-13
1.396801994e-13
1.545891367e-13
1.87384737e-13
2.055539578e-13
1.701063576e-13
2.163928628e-13
2.729571311e-13
2.509866326e-13
2.78343079e-13
3.138328314e-13
3.315330894e-13
3.45060707e-13
3.523298999e-13
3.955356985e-13
3.766642886e-13
4.059056766e-13
3.935664352e-13
4.94270232e-13
4.694184241e-13
4.695624237e-13
4.80977926e-13
5.10458528e-13
6.03824558e-13
5.64700344e-13
5.523457866e-13
6.3451591e-13
5.968643497e-13
6.310810146e-13
6.963131059e-13
6.476541363e-13
6.225403304e-13
7.968493303e-13
6.821268572e-13
7.934183461e-13
8.510049217e-13
7.83432249e-13
1.005065444e-12
8.203840797e-13
8.266284648e-13
9.681274517e-13
9.651729387e-13
9.785779569e-13
9.654022512e-13
1.009225269e-12
1.002462546e-12
9.777050403e-13
1.019568512e-12
1.052820385e-12
1.038788004e-12
1.060046951e-12
1.097912119e-12
1.22507389e-12
1.184253435e-12
1.086394941e-12
1.199806696e-12
1.095737799e-12
1.148745515e-12
1.218682461e-12
1.26728311e-12
1.21914687e-12
1.199553201e-12
1.262194902e-12
1.226170264e-12
1.159389517e-12
1.213375438e-12
1.175652015e-12
1.245191365e-12
1.244789076e-12
1.328226123e-12
1.247702379e-12
1.457916592e-12
1.249867156e-12
1.270058778e-12
1.239737716e-12
1.276568601e-12
1.280106242e-12
1.347432248e-12
1.349809913e-12
1.254997383e-12
1.299985708e-12
1.306155873e-12
2.43399727e-12
4.834343484e-12
2.419648879e-15
1.477650552e-14
4.635353669e-14
7.177014469e-14
9.015193981e-14
9.565871426e-14
1.142278004e-13
1.187998587e-13
1.672240678e-13
1.620379645e-13
2.050553858e-13
1.584834169e-13
2.061196381e-13
2.400243965e-13
2.740901086e-13
2.531701934e-13
2.773485117e-13
3.159609077e-13
3.143419448e-13
3.581027702e-13
3.81811724e-13
3.51179122e-13
4.164565383e-13
4.444121643e-13
5.003728335e-13
4.791849602e-13
4.94096519e-13
4.997293944e-13
5.599701475e-13
5.833433179e-13
5.445764815e-13
6.464278235e-13
6.147629269e-13
6.870918893e-13
6.501918208e-13
6.900457209e-13
6.07133443e-13
7.187742731e-13
7.85072212e-13
7.761146667e-13
7.932667267e-13
7.685962805e-13
8.336162538e-13
7.488869739e-13
8.773349832e-13
8.711544036e-13
8.987730145e-13
9.653073104e-13
9.494035404e-13
1.024432963e-12
9.670405836e-13
9.642961002e-13
9.183954483e-13
1.034018088e-12
1.009326725e-12
1.020251686e-12
1.168511401e-12
1.026552048e-12
1.196312532e-12
1.119923792e-12
1.175485994e-12
1.183189618e-12
1.149683517e-12
1.102079239e-12
1.176576776e-12
1.152062971e-12
1.190149741e-12
1.122421889e-12
1.174439644e-12
1.253867527e-12
1.303903859e-12
1.238927546e-12
1.195489144e-12
1.27000493e-12
1.250663844e-12
1.304840723e-12
1.199447586e-12
1.231692905e-12
1.303074893e-12
1.276420401e-12
1.331665763e-12
1.377753602e-12
1.263045912e-12
1.239530743e-12
1.28860137e-12
1.310231708e-12
1.294650335e-12
1.340879498e-12
3.730961759e-12
3.947377628e-12
5.256043924e-15
3.343744151e-14
5.702588691e-14
5.816060978e-14
8.658483936e-14
1.001505895e-13
1.110725217e-13
1.358995851e-13
1.748424435e-13
1.5017185e-13
2.026279476e-13
2.075780908e-13
2.182180174e-13
2.446661802e-13
2.838947319e-13
2.884893954e-13
2.892016741e-13
2.961636701e-13
3.13192263e-13
3.515075866e-13
3.664037204e-13
3.711708239e-13
4.027176344e-13
3.801241167e-13
4.626312944e-13
4.779173506e-13
5.199641165e-13
5.15629103e-13
4.374731229e-13
4.913905605e-13
6.112659967e-13
6.329082693e-13
5.70085501e-13
5.855564008e-13
5.925113184e-13
7.076252418e-13
7.849333766e-13
7.115618448e-13
6.932766077e-13
6.757676299e-13
6.684913097e-13
7.084429086e-13
7.43382414e-13
7.689112881e-13
8.346922469e-13
8.641477817e-13
8.681554093e-13
9.604897106e-13
9.20081412e-13
9.471997334e-13
9.5159046e-13
9.018643089e-13
9.504255677e-13
9.832130306e-13
1.006751243e-12
1.150205561e-12
1.075612373e-12
1.00983691e-12
1.082732708e-12
1.059943722e-12
9.836927911e-13
1.004441411e-12
1.10312095e-12
1.064124767e-12
1.170515137e-12
1.12339049e-12
1.112663737e-12
1.063745248e-12
1.038171683e-12
1.178034045e-12
1.165295078e-12
1.220548613e-12
1.244772709e-12
1.166472462e-12
1.216958796e-12
1.205329824e-12
1.219546251e-12
1.277697334e-12
1.228581844e-12
1.257074716e-12
1.214318487e-12
1.18078119e-12
1.30734329e-12
1.250705791e-12
1.147574538e-12
1.253850652e-12
1.249412339e-12
1.928107261e-12
4.223363538e-12
3.848050621e-12
2.711328395e-15
3.532521668e-14
5.429435343e-14
7.122088921e-14
7.153789578e-14
6.292293009e-14
7.253864719e-14
1.355485105e-13
1.163909663e-13
1.514896417e-13
1.74525142e-13
1.595785859e-13
1.863955725e-13
2.080515029e-13
2.925227743e-13
2.682661913e-13
3.114269081e-13
3.26030718e-13
3.923240204e-13
2.922170982e-13
3.367739378e-13
4.093637081e-13
4.038606794e-13
4.231653019e-13
4.396440565e-13
4.776349774e-13
4.572373986e-13
5.191835469e-13
5.159164098e-13
5.598961819e-13
5.739499587e-13
4.769474798e-13
6.332181894e-13
5.847760718e-13
6.429177288e-13
6.203310289e-13
7.00096835e-13
6.575806556e-13
7.609775528e-13
6.873904024e-13
7.216496521e-13
7.557651296e-13
8.032722176e-13
7.534598367e-13
8.025594623e-13
9.046374992e-13
8.836543489e-13
8.232014502e-13
9.015141316e-13
8.448792214e-13
8.94674091e-13
1.006933789e-12
9.327903661e-13
9.732644462e-13
1.049593526e-12
9.594671493e-13
9.410853232e-13
9.909174714e-13
1.061547756e-12
1.002162552e-12
1.052208533e-12
1.134653843e-12
1.113047817e-12
1.123812045e-12
1.090482079e-12
1.133334869e-12
1.001495922e-12
1.117380399e-12
1.094041419e-12
1.091471562e-12
1.211938576e-12
1.085672649e-12
1.155751535e-12
1.252774954e-12
1.232880181e-12
1.095166798e-12
1.204409927e-12
1.189707833e-12
1.233518794e-12
1.217521708e-12
1.284763525e-12
1.241001477e-12
1.135103604e-12
1.227076755e-12
1.211905195e-12
1.230042169e-12
1.167670661e-12
3.357176001e-12
3.859990216e-12
3.811170083e-12
0
2.573534556e-14
3.149126443e-14
6.285776256e-14
5.211249096e-14
1.105791063e-13
7.831592439e-14
1.196147283e-13
1.316818679e-13
1.745050478e-13
1.736458467e-13
2.092491599e-13
1.977901816e-13
2.385061792e-13
2.570899147e-13
2.466309933e-13
3.034297914e-13
3.149766606e-13
3.507112326e-13
3.597758602e-13
3.991902541e-13
3.355882336e-13
3.731786763e-13
4.378000423e-13
4.324697294e-13
4.557200614e-13
4.749375149e-13
4.501865803e-13
5.38963409e-13
5.17779203e-13
5.541366484e-13
6.296144594e-13
5.547231878e-13
6.310457079e-13
6.186112502e-13
6.346333797e-13
6.925343146e-13
7.179328162e-13
6.837760674e-13
6.907208296e-13
7.862286411e-13
7.670599791e-13
6.714011151e-13
8.179749637e-13
8.863225391e-13
7.925465336e-13
8.265700277e-13
9.68504391e-13
8.916143962e-13
8.113827276e-13
9.050280336e-13
8.477344015e-13
9.576720316e-13
1.007353256e-12
9.420518295e-13
9.471932814e-13
8.490090351e-13
9.345615476e-13
9.480139688e-13
9.232456096e-13
9.604920616e-13
1.002019357e-12
1.023161691e-12
1.006218459e-12
1.010747139e-12
1.049609511e-12
1.113497669e-12
1.106630681e-12
1.112118396e-12
1.071452081e-12
1.103200439e-12
1.098271933e-12
1.050603026e-12
1.109307011e-12
1.209462926e-12
1.152946921e-12
1.099104606e-12
1.187779445e-12
1.14491614e-12
1.106687931e-12
1.12089648e-12
1.128953565e-12
1.164136942e-12
1.021317516e-12
1.227029308e-12
1.140974523e-12
2.35346319e-12
4.659835889e-12
3.427615707e-12
3.737558511e-12
8.925350215e-15
3.266581761e-14
3.262381379e-14
5.690575184e-14
7.529018642e-14
8.160469499e-14
1.330795284e-13
1.304709101e-13
1.39823297e-13
1.229570838e-13
1.931288781e-13
1.807750931e-13
2.846509084e-13
2.048762217e-13
2.828782307e-13
2.308138206e-13
3.383169048e-13
3.081566678e-13
3.279567805e-13
3.707596975e-13
3.62953893e-13
3.891955913e-13
3.858839946e-13
3.719351051e-13
4.681681426e-13
4.028854074e-13
4.062393685e-13
4.919696862e-13
5.321851781e-13
4.391748805e-13
5.783809075e-13
5.597148829e-13
6.063492532e-13
6.474294671e-13
6.884684461e-13
6.577523878e-13
6.964700917e-13
6.121256449e-13
6.39141345e-13
6.749960406e-13
7.038138245e-13
7.807555149e-13
7.194571375e-13
8.760889801e-13
7.74493492e-13
8.028246193e-13
8.796507801e-13
7.444834856e-13
7.561819477e-13
7.347253505e-13
8.285403552e-13
8.646033351e-13
8.899999045e-13
9.59172924e-13
9.301500265e-13
9.880142576e-13
1.042913579e-12
8.619026277e-13
8.777497008e-13
9.493125e-13
8.949487049e-13
9.43627987e-13
9.037807929e-13
1.020410167e-12
9.175829885e-13
1.045927416e-12
1.053631327e-12
1.085879939e-12
1.023099923e-12
1.021829008e-12
1.008865505e-12
1.086403505e-12
1.077792566e-12
1.024114079e-12
1.008072194e-12
1.045924011e-12
1.100872156e-12
1.050524322e-12
1.149195805e-12
1.050154181e-12
1.073452902e-12
9.481182245e-13
1.087444235e-12
1.093063764e-12
1.024560433e-12
1.751913817e-12
4.726435919e-12
4.397162244e-12
3.315549538e-12
4.110980358e-12
1.876673477e-14
3.221705254e-14
1.885004277e-14
4.369726006e-14
5.65010906e-14
8.19238911e-14
1.451422651e-13
1.076737399e-13
1.459011909e-13
1.672113444e-13
1.791754655e-13
1.47206154e-13
2.25628181e-13
2.445766144e-13
2.398084478e-13
2.979946449e-13
2.829036856e-13
3.006336104e-13
3.19222627e-13
2.948746051e-13
3.736410087e-13
3.879097154e-13
3.849602758e-13
4.186841512e-13
4.951885672e-13
4.37764417e-13
4.174674548e-13
4.696369184e-13
5.213881251e-13
5.12099301e-13
5.371138757e-13
5.953026328e-13
5.151574496e-13
6.19862514e-13
6.378148739e-13
6.651150402e-13
5.756162694e-13
6.738000255e-13
6.584484113e-13
6.614999267e-13
7.090346645e-13
7.375195229e-13
7.760941751e-13
7.642656878e-13
8.330522948e-13
8.455218519e-13
8.402922953e-13
7.408940103e-13
8.100011994e-13
8.905146754e-13
8.422741885e-13
8.134273442e-13
8.425422104e-13
8.609675333e-13
8.083814228e-13
8.412870422e-13
9.703779393e-13
9.006588474e-13
8.87159227e-13
1.070438395e-12
9.375726674e-13
9.926558241e-13
8.781203829e-13
1.013202988e-12
1.034543833e-12
1.115957975e-12
9.045498376e-13
9.368360298e-13
9.661745481e-13
9.946260662e-13
1.134502658e-12
9.938483191e-13
1.112046703e-12
9.894939931e-13
1.078109503e-12
1.035568585e-12
9.871991351e-13
1.036472337e-12
1.032342179e-12
9.789566524e-13
1.073796334e-12
1.066403829e-12
1.0625749e-12
1.059524307e-12
1.702700969e-12
4.74179036e-12
5.354071519e-12
3.09683629e-12
3.318772886e-12
4.386296126e-12
3.21097859e-15
3.108043996e-14
2.593803736e-14
6.031432137e-14
6.834862772e-14
7.552055077e-14
9.507902182e-14
1.447883571e-13
1.518944254e-13
1.243241649e-13
1.794780666e-13
1.650993037e-13
2.19554638e-13
2.352783808e-13
2.157766844e-13
2.43997622e-13
2.930519031e-13
3.113502941e-13
2.757073159e-13
3.164751548e-13
3.645729387e-13
3.733291824e-13
3.866178618e-13
4.396395191e-13
4.061921489e-13
4.596131672e-13
4.716841629e-13
5.037626671e-13
4.495973936e-13
5.413360343e-13
5.636358034e-13