/*--------------------------------*- C++ -*----------------------------------*\
| =========                 |                                                 |
| \\      /  F ield         | OpenFOAM: The Open Source CFD Toolbox           |
|  \\    /   O peration     | Version:  2206                                  |
|   \\  /    A nd           | Website:  www.openfoam.com                      |
|    \\/     M anipulation  |                                                 |
\*---------------------------------------------------------------------------*/
FoamFile
{
    version     2.0;
    format      ascii;
    arch        "LSB;label=32;scalar=64";
    class       volVectorField::Internal;
    location    "0.01";
    object      reactingCloud1:UTrans;
}
// * * * * * * * * * * * * * * * * * * * * * * * * * * * * * * * * * * * * * //

dimensions      [1 1 -1 0 0 0 0];

value           nonuniform List<vector> 
18900
(
(-3.773638813e-18 -7.114891782e-22 -6.310656585e-17)
(-1.132418848e-17 1.142903279e-18 -2.694343819e-16)
(-6.869422072e-18 3.930021964e-18 -2.241482634e-16)
(1.993842204e-16 1.15158029e-17 -4.046359514e-16)
(2.152692302e-16 2.318907469e-17 -4.045416762e-16)
(4.941679804e-16 1.693049794e-17 -2.968158588e-16)
(9.478861372e-16 5.365285402e-17 -9.199331041e-16)
(-2.812031026e-16 4.509431582e-17 -9.824631721e-16)
(5.2415949e-16 3.906033878e-17 -1.427012879e-15)
(3.109483941e-16 9.011577663e-17 -4.14591737e-16)
(2.224252935e-15 8.751856586e-17 -1.5103033e-15)
(1.131798642e-15 1.135608945e-16 -7.000605007e-16)
(1.269570539e-15 1.379935415e-16 -2.535557048e-15)
(2.597727532e-15 2.161474301e-16 -1.197850682e-15)
(1.885172993e-15 1.590689156e-16 -1.795452569e-15)
(1.536553569e-15 2.079122075e-16 -2.296592082e-15)
(5.066695031e-15 1.887913039e-16 -1.175961038e-15)
(5.683718946e-15 2.502183335e-16 -2.073927737e-15)
(7.226464355e-15 1.913898321e-16 -3.964908286e-15)
(5.16865919e-15 2.28702312e-16 -2.078337573e-15)
(3.692264572e-15 2.7849157e-16 -1.129263263e-15)
(4.724289178e-15 3.000840845e-16 -2.885950944e-16)
(6.694656783e-15 3.587500716e-16 -1.788703193e-15)
(8.181409466e-15 4.067762897e-16 -3.729492943e-15)
(1.199613558e-14 4.570876191e-16 -3.878083016e-15)
(9.533428843e-15 4.657653154e-16 -3.049806803e-15)
(1.364324763e-14 4.567367171e-16 -1.570243094e-15)
(1.299212593e-14 4.872081774e-16 -2.955471123e-15)
(1.432037283e-14 4.108113296e-16 -3.22206061e-15)
(1.904205266e-14 5.892993202e-16 -1.14000479e-15)
(2.052753528e-14 7.04667496e-16 -3.613710834e-15)
(1.43477516e-14 5.207874304e-16 -1.208056089e-15)
(1.914911707e-14 6.231893407e-16 -7.771736218e-15)
(2.498915396e-14 7.018318263e-16 -2.395179107e-15)
(1.616091546e-14 7.29933801e-16 -4.030128895e-16)
(2.038144435e-14 7.071518589e-16 -5.270908308e-15)
(2.253920696e-14 7.302118778e-16 -5.957351505e-15)
(2.291846907e-14 6.970574251e-16 -3.101791073e-15)
(2.269024483e-14 8.395245156e-16 -6.118210287e-15)
(3.233821878e-14 9.902954179e-16 -4.009477598e-15)
(2.644698438e-14 9.412791205e-16 -5.638661646e-15)
(3.492263253e-14 8.511643278e-16 -7.503093094e-15)
(3.255790698e-14 1.086829028e-15 -6.824645627e-15)
(2.709191243e-14 1.024362794e-15 -2.456031019e-15)
(3.230310889e-14 1.182889565e-15 -5.781455354e-15)
(3.527967223e-14 1.006703505e-15 -6.089330159e-15)
(3.559640298e-14 1.180084679e-15 -2.505214384e-15)
(4.219175922e-14 8.143260851e-16 -5.611247354e-15)
(4.841338545e-14 1.162133129e-15 -3.005189607e-15)
(4.015024467e-14 1.105569329e-15 -8.366941048e-15)
(3.801954163e-14 1.071733691e-15 -5.224739217e-15)
(4.396979834e-14 1.307551925e-15 -5.916220535e-15)
(4.483028558e-14 1.154624137e-15 4.88409954e-15)
(5.614302732e-14 1.131310076e-15 -1.074572139e-14)
(5.23411335e-14 1.124839642e-15 -3.21011682e-15)
(4.97890796e-14 1.316616492e-15 2.181637176e-15)
(4.769759026e-14 1.168157812e-15 -8.819238733e-15)
(5.501916819e-14 1.406343431e-15 -7.74745082e-15)
(6.282442275e-14 1.163807744e-15 -8.573544359e-15)
(5.507785672e-14 1.273240834e-15 -5.947464361e-15)
(4.911440106e-14 1.209853873e-15 4.485069651e-15)
(5.592909425e-14 1.334381386e-15 -6.111931705e-15)
(6.290184696e-14 1.349064457e-15 3.676474061e-16)
(6.308206111e-14 1.268340161e-15 -4.20402736e-16)
(4.962055383e-14 1.142485361e-15 3.844741039e-15)
(4.81921855e-14 1.306517393e-15 9.64141819e-16)
(5.571006723e-14 1.141058709e-15 1.85127722e-15)
(5.131198594e-14 1.295786101e-15 -2.146604617e-15)
(6.072783733e-14 1.294090684e-15 1.916894438e-15)
(4.670830687e-14 1.036263862e-15 -2.961119113e-16)
(5.294862321e-14 1.165162267e-15 2.841630816e-15)
(5.178306863e-14 1.125314082e-15 4.233463481e-15)
(4.842135487e-14 1.129508001e-15 6.030978668e-15)
(5.050555054e-14 1.136332792e-15 6.711089439e-15)
(5.214210541e-14 1.076124792e-15 9.629582694e-15)
(5.887422336e-14 9.44903281e-16 9.995966399e-15)
(5.023624539e-14 1.046742678e-15 1.168215838e-14)
(4.905511555e-14 7.351213563e-16 1.295026882e-14)
(4.29584733e-14 7.89336383e-16 1.381740521e-14)
(3.994542259e-14 7.914065705e-16 1.653352198e-14)
(3.900122054e-14 6.640465716e-16 1.935952922e-14)
(3.793769243e-14 7.289114137e-16 2.180592924e-14)
(3.297301224e-14 6.057019862e-16 2.00349167e-14)
(3.147597114e-14 4.347416449e-16 2.370721041e-14)
(2.146139058e-14 3.885311503e-16 2.114179884e-14)
(2.200607266e-14 2.88887312e-16 2.833072856e-14)
(1.712675993e-14 2.169690083e-16 2.632194511e-14)
(1.202757797e-14 9.635495368e-17 2.662912376e-14)
(7.625570516e-15 3.657116044e-17 2.827217218e-14)
(8.220886526e-15 -9.71738149e-19 3.003509993e-14)
(5.116826892e-17 1.555135244e-20 -4.136853603e-16)
(5.442619264e-16 1.348176516e-18 -1.571561675e-15)
(1.231593362e-15 5.80971026e-18 -2.290137268e-15)
(2.290717308e-15 8.1349114e-18 -3.045755055e-15)
(5.077264839e-15 1.714365719e-17 -5.339854867e-15)
(8.553214048e-15 2.198716777e-17 -6.909419102e-15)
(1.192420015e-14 3.930835167e-17 -8.514166693e-15)
(1.312113412e-14 4.846270838e-17 -8.54493033e-15)
(1.29186615e-14 3.764044215e-17 -7.384947514e-15)
(1.760450402e-14 6.607171262e-17 -8.479078082e-15)
(2.522971233e-14 7.164358409e-17 -1.052978642e-14)
(2.969979354e-14 1.211383657e-16 -1.20175089e-14)
(2.575106457e-14 1.160474888e-16 -9.61875918e-15)
(3.343272859e-14 1.381687057e-16 -1.214385095e-14)
(4.865561559e-14 1.645373702e-16 -1.617715346e-14)
(5.435937205e-14 2.23331825e-16 -1.561174575e-14)
(6.028853373e-14 2.347433193e-16 -1.76588419e-14)
(6.894110625e-14 3.295246919e-16 -2.098068971e-14)
(8.723486508e-14 2.629309614e-16 -2.36566086e-14)
(9.090709865e-14 2.437316994e-16 -2.286670258e-14)
(1.01285811e-13 3.038142942e-16 -2.298833038e-14)
(1.173271919e-13 3.406595776e-16 -2.428282666e-14)
(1.210127938e-13 4.010782481e-16 -2.778944269e-14)
(1.288630822e-13 5.122650246e-16 -2.829808231e-14)
(1.491112995e-13 5.296584806e-16 -2.82506671e-14)
(1.557375331e-13 5.341312807e-16 -3.03133172e-14)
(1.809676138e-13 6.113741718e-16 -3.295249606e-14)
(1.902439109e-13 5.510901851e-16 -3.015876684e-14)
(2.064310147e-13 7.279991774e-16 -3.012598419e-14)
(2.011910316e-13 6.783601025e-16 -3.484533614e-14)
(2.261487302e-13 7.907904179e-16 -3.423635571e-14)
(2.409741879e-13 7.352750308e-16 -3.374294306e-14)
(2.431519166e-13 8.973139301e-16 -3.504320537e-14)
(2.769599309e-13 8.881269607e-16 -3.933076983e-14)
(3.025118645e-13 1.002285112e-15 -3.859367402e-14)
(2.917044182e-13 1.007373035e-15 -3.649573039e-14)
(2.987138615e-13 1.270165353e-15 -4.058020379e-14)
(3.293647027e-13 1.107369798e-15 -4.187294622e-14)
(3.319724392e-13 1.132153731e-15 -3.723586909e-14)
(3.39248546e-13 1.222429469e-15 -3.86729028e-14)
(3.45596251e-13 1.228192038e-15 -3.416654224e-14)
(3.769544714e-13 1.340532853e-15 -3.604281855e-14)
(3.591855431e-13 1.360017015e-15 -3.428070256e-14)
(3.890101475e-13 1.295045284e-15 -4.32534646e-14)
(3.696885176e-13 1.220708525e-15 -3.432774247e-14)
(4.29922954e-13 1.289932702e-15 -3.875686976e-14)
(4.519769861e-13 1.395393314e-15 -3.431814427e-14)
(4.580688811e-13 1.57966169e-15 -3.538857786e-14)
(4.318847391e-13 1.673115379e-15 -3.671022861e-14)
(4.874095571e-13 1.794376588e-15 -3.477701876e-14)
(4.821542275e-13 1.643088928e-15 -3.223648338e-14)
(4.842777937e-13 1.732355833e-15 -3.270623458e-14)
(5.424052311e-13 1.807924596e-15 -3.767683528e-14)
(5.007031333e-13 1.709663628e-15 -2.308371204e-14)
(5.016408459e-13 1.766121387e-15 -2.467683002e-14)
(5.089242825e-13 1.722224363e-15 -2.546350008e-14)
(5.416305157e-13 1.772765307e-15 -2.445652462e-14)
(5.631043061e-13 2.130400692e-15 -2.156031667e-14)
(5.663343825e-13 1.985614088e-15 -1.398762648e-14)
(5.99544257e-13 1.874787681e-15 -1.810294991e-14)
(5.786568372e-13 2.060473484e-15 -1.067439576e-14)
(5.673056699e-13 2.13722021e-15 -1.462672812e-14)
(5.898336588e-13 2.164416277e-15 -5.965680084e-15)
(5.630513407e-13 1.783190376e-15 -7.551544952e-15)
(6.082804293e-13 1.93939153e-15 1.30022013e-15)
(5.621057498e-13 1.779664912e-15 7.560637065e-15)
(5.702344361e-13 1.715145161e-15 1.863875701e-14)
(5.633257414e-13 1.992121465e-15 1.511576203e-14)
(5.284918186e-13 2.058177111e-15 1.677057601e-14)
(5.451413117e-13 1.687489221e-15 3.024688843e-14)
(5.346530109e-13 1.749033776e-15 3.080213289e-14)
(5.178860707e-13 1.550048201e-15 3.652974805e-14)
(5.214867656e-13 1.502282148e-15 4.675174525e-14)
(5.13161567e-13 1.710870653e-15 5.758081036e-14)
(4.523576353e-13 1.490117424e-15 5.23662738e-14)
(4.651808854e-13 1.465694703e-15 7.037628157e-14)
(4.531854535e-13 1.563404286e-15 7.389087324e-14)
(4.331958815e-13 1.239825478e-15 8.426101716e-14)
(4.406841678e-13 1.201988141e-15 9.790351103e-14)
(3.760537517e-13 1.014747585e-15 1.031183119e-13)
(3.616268546e-13 9.177460771e-16 1.170945123e-13)
(3.439705261e-13 9.919895102e-16 1.311028043e-13)
(3.138934661e-13 6.505428293e-16 1.404359379e-13)
(2.80769472e-13 7.022696341e-16 1.514437833e-13)
(2.277496235e-13 5.127288795e-16 1.520276968e-13)
(1.923459263e-13 3.356142844e-16 1.690360907e-13)
(1.528633712e-13 2.941665337e-16 1.729506892e-13)
(1.108703612e-13 1.263123824e-16 1.808868058e-13)
(6.769269194e-14 -6.08572211e-17 1.901257717e-13)
(3.423191179e-14 -6.079630396e-17 1.917485861e-13)
(8.624596415e-18 -2.920105424e-23 -2.511729453e-16)
(1.362943031e-15 9.249185254e-19 -4.650982717e-15)
(3.299605864e-15 6.56448358e-18 -7.736881507e-15)
(5.951457732e-15 8.144963721e-18 -1.068165135e-14)
(8.352280519e-15 2.138184397e-17 -1.101946508e-14)
(1.336969159e-14 2.552611987e-17 -1.464121521e-14)
(1.888926575e-14 4.483147835e-17 -1.715895632e-14)
(3.184439917e-14 5.431473799e-17 -2.663050574e-14)
(3.253514708e-14 5.809519174e-17 -2.368705648e-14)
(4.109999917e-14 9.288140621e-17 -2.693883202e-14)
(5.740725603e-14 1.046737901e-16 -3.323118697e-14)
(7.57661179e-14 1.432741031e-16 -4.153317895e-14)
(8.227126458e-14 1.263528681e-16 -4.207004523e-14)
(9.928803813e-14 1.49331739e-16 -4.527822308e-14)
(1.179328616e-13 2.767558987e-16 -4.982104004e-14)
(1.324760767e-13 2.306357455e-16 -5.421554361e-14)
(1.406607739e-13 2.679211856e-16 -5.179180371e-14)
(1.621727713e-13 2.81441605e-16 -5.531517738e-14)
(1.852775955e-13 3.913904147e-16 -6.364013968e-14)
(1.909412958e-13 3.570885e-16 -6.043406196e-14)
(2.206967213e-13 3.230070487e-16 -6.586214762e-14)
(2.974098563e-13 4.810217545e-16 -8.60014504e-14)
(2.522774671e-13 3.928913096e-16 -6.769414618e-14)
(2.980819463e-13 5.827011604e-16 -7.535764231e-14)
(3.243469082e-13 6.384965509e-16 -8.157577475e-14)
(3.306568874e-13 4.392015266e-16 -7.822096387e-14)
(3.402042405e-13 6.188586084e-16 -7.979153159e-14)
(3.879076305e-13 6.396753734e-16 -8.73241113e-14)
(4.9834981e-13 9.062613654e-16 -1.02740538e-13)
(4.851181846e-13 8.764764969e-16 -9.484294877e-14)
(4.50004277e-13 6.163345265e-16 -8.711232591e-14)
(4.94832019e-13 8.263947936e-16 -9.480627024e-14)
(6.043374218e-13 9.059104059e-16 -1.124944544e-13)
(5.327263932e-13 9.420142226e-16 -9.223421692e-14)
(6.286828897e-13 1.080784516e-15 -1.058479051e-13)
(6.374854905e-13 1.152608079e-15 -1.046816375e-13)
(7.403022403e-13 1.277599851e-15 -1.136856657e-13)
(6.891878348e-13 1.21196501e-15 -9.995810206e-14)
(7.16268938e-13 1.335074881e-15 -1.015614729e-13)
(7.90362488e-13 1.161502302e-15 -1.118179514e-13)
(8.415724342e-13 1.390799376e-15 -1.055782979e-13)
(8.245977063e-13 1.185633842e-15 -9.811973171e-14)
(8.882447803e-13 1.299686476e-15 -1.031672707e-13)
(8.790261244e-13 1.452607987e-15 -1.02977608e-13)
(9.098676036e-13 1.496631773e-15 -1.028829565e-13)
(8.809776434e-13 1.50160161e-15 -9.541213144e-14)
(1.019642011e-12 1.839249294e-15 -1.047686231e-13)
(9.688117629e-13 1.460288804e-15 -8.581496457e-14)
(9.939662095e-13 1.745567999e-15 -9.450325527e-14)
(1.032632043e-12 1.576965206e-15 -8.922305517e-14)
(1.122043482e-12 1.662386887e-15 -9.284055437e-14)
(1.046228517e-12 1.875156241e-15 -8.327644597e-14)
(1.100863871e-12 1.860364023e-15 -7.842852079e-14)
(1.185080573e-12 1.912167564e-15 -7.945431913e-14)
(1.182347376e-12 1.911207526e-15 -7.189353428e-14)
(1.197203611e-12 1.698475874e-15 -5.797720994e-14)
(1.166237149e-12 2.052209769e-15 -5.669283799e-14)
(1.282658414e-12 2.024555908e-15 -5.892039002e-14)
(1.225472135e-12 1.981459277e-15 -4.737225356e-14)
(1.290945531e-12 2.054363176e-15 -4.420876718e-14)
(1.220365773e-12 2.280682644e-15 -4.068929021e-14)
(1.24323149e-12 1.885410501e-15 -1.672066024e-14)
(1.281739572e-12 1.982293539e-15 -1.297267014e-14)
(1.253844293e-12 2.057660259e-15 -6.599016447e-15)
(1.283472019e-12 2.201741668e-15 5.337758593e-15)
(1.39701616e-12 2.050300017e-15 1.972037791e-14)
(1.241559748e-12 2.113781823e-15 3.175329582e-14)
(1.206616662e-12 1.934808159e-15 4.254824559e-14)
(1.196211887e-12 1.822650016e-15 5.554941348e-14)
(1.240514367e-12 1.88467659e-15 7.628634117e-14)
(1.153851496e-12 1.524339105e-15 8.330220303e-14)
(1.189050922e-12 1.902679641e-15 1.071927228e-13)
(1.138941026e-12 1.841334194e-15 1.220493789e-13)
(1.140395707e-12 1.493307101e-15 1.416876743e-13)
(1.069576611e-12 1.530819957e-15 1.538905552e-13)
(1.001856662e-12 1.551668299e-15 1.678344097e-13)
(9.882265291e-13 1.491075457e-15 1.964060317e-13)
(9.632423627e-13 1.4002768e-15 2.232821826e-13)
(9.556418219e-13 1.47024911e-15 2.580992123e-13)
(8.686586136e-13 1.0807864e-15 2.771538719e-13)
(8.461027193e-13 1.07374844e-15 3.10369404e-13)
(7.342190212e-13 7.858129142e-16 3.225328058e-13)
(6.644473019e-13 8.230461027e-16 3.473044144e-13)
(5.851131097e-13 7.048308177e-16 3.710122409e-13)
(5.179892988e-13 5.146115814e-16 4.040259993e-13)
(4.373085293e-13 3.872652336e-16 4.357666829e-13)
(3.544629903e-13 1.065097663e-16 4.640158319e-13)
(2.348870769e-13 -7.02405255e-17 4.406327789e-13)
(1.59386678e-13 -2.527765593e-16 5.130154201e-13)
(7.329779456e-14 -1.715924346e-16 5.123634603e-13)
(2.742977049e-16 1.220441188e-19 -3.827254054e-15)
(1.825487912e-15 3.613589934e-18 -7.631840974e-15)
(3.824715309e-15 3.400810565e-18 -1.010454964e-14)
(8.612235748e-15 9.240272776e-18 -1.889938883e-14)
(9.756614797e-15 9.809743024e-18 -1.602753755e-14)
(2.482504823e-14 2.71739753e-17 -3.367736804e-14)
(3.072321084e-14 3.981068713e-17 -3.501101046e-14)
(5.608815762e-14 5.583838657e-17 -5.646640852e-14)
(5.828914621e-14 4.284842147e-17 -4.972048271e-14)
(7.03859823e-14 7.764062465e-17 -5.519585877e-14)
(8.271934698e-14 7.971238471e-17 -5.925920576e-14)
(9.224767258e-14 1.101232055e-16 -6.152304033e-14)
(1.408267314e-13 1.333583688e-16 -8.504165867e-14)
(1.317255519e-13 1.559446988e-16 -7.356394666e-14)
(1.514578598e-13 1.948658153e-16 -7.838921003e-14)
(1.812734869e-13 1.881782365e-16 -8.935497977e-14)
(2.070056709e-13 2.817743163e-16 -9.47141364e-14)
(2.584035766e-13 3.411136763e-16 -1.073215066e-13)
(2.875325724e-13 3.517762522e-16 -1.18262373e-13)
(2.849160548e-13 3.770213921e-16 -1.079943273e-13)
(3.018200475e-13 3.255707981e-16 -1.063789388e-13)
(3.85954086e-13 5.324297081e-16 -1.362944558e-13)
(4.492358204e-13 5.259798886e-16 -1.495364468e-13)
(5.254543266e-13 5.48666854e-16 -1.640306009e-13)
(5.435394799e-13 5.854942976e-16 -1.614318175e-13)
(6.098498293e-13 6.496177761e-16 -1.738293243e-13)
(5.904941709e-13 6.655551007e-16 -1.705731773e-13)
(6.748243866e-13 8.384497113e-16 -1.748530883e-13)
(7.033774076e-13 7.611475103e-16 -1.734503798e-13)
(7.095364048e-13 9.30465237e-16 -1.695121861e-13)
(8.265954359e-13 8.494762665e-16 -1.91045255e-13)
(8.188886364e-13 8.973973147e-16 -1.825230343e-13)
(9.307675163e-13 1.049982274e-15 -1.998522881e-13)
(9.36935594e-13 1.093788135e-15 -1.970278194e-13)
(9.612774701e-13 1.132632219e-15 -1.903220082e-13)
(1.046529147e-12 1.206775746e-15 -1.993050821e-13)
(1.133431163e-12 1.215488985e-15 -2.066056602e-13)
(1.209059117e-12 1.380577371e-15 -2.095273802e-13)
(1.171654179e-12 1.189365201e-15 -1.98387965e-13)
(1.196102382e-12 1.441122914e-15 -1.967117964e-13)
(1.340101757e-12 1.493612341e-15 -2.028066846e-13)
(1.456666088e-12 1.677315258e-15 -2.143079699e-13)
(1.422710984e-12 1.687763659e-15 -1.975957979e-13)
(1.280477531e-12 1.224560664e-15 -1.716153282e-13)
(1.575654311e-12 1.765607353e-15 -2.017148944e-13)
(1.782028791e-12 1.747721693e-15 -2.193955135e-13)
(1.560192905e-12 1.697954002e-15 -1.859488919e-13)
(1.522604333e-12 1.712424493e-15 -1.692589269e-13)
(1.648452632e-12 2.019741094e-15 -1.718824595e-13)
(1.661051789e-12 1.907869045e-15 -1.679814124e-13)
(1.701001141e-12 2.158101718e-15 -1.65566019e-13)
(1.754333521e-12 1.881505582e-15 -1.549158049e-13)
(1.683505955e-12 1.73601495e-15 -1.410994664e-13)
(1.995394672e-12 2.215086164e-15 -1.480646483e-13)
(1.824651502e-12 2.238108925e-15 -1.395796351e-13)
(1.899920077e-12 1.990590129e-15 -1.127289745e-13)
(1.903879887e-12 2.078819999e-15 -1.099208532e-13)
(2.020523774e-12 2.110793668e-15 -1.041761265e-13)
(1.828348231e-12 1.943359024e-15 -7.706924176e-14)
(1.822787911e-12 1.830693353e-15 -6.915487729e-14)
(1.994554176e-12 1.817436711e-15 -5.101089432e-14)
(2.083532102e-12 2.117793876e-15 -4.280567668e-14)
(1.881283009e-12 1.871925163e-15 -2.706367797e-14)
(2.112799933e-12 2.519601357e-15 -7.223304442e-15)
(1.955668867e-12 2.068966566e-15 1.5296617e-14)
(2.128389868e-12 1.953474529e-15 4.482825376e-14)
(1.908608696e-12 1.974503142e-15 6.924105007e-14)
(1.999782444e-12 1.928697602e-15 8.624866685e-14)
(1.963530682e-12 1.944199256e-15 1.088588837e-13)
(1.916795632e-12 2.082127201e-15 1.346661188e-13)
(1.936241662e-12 1.655771371e-15 1.771801236e-13)
(1.847626245e-12 1.697829939e-15 2.046432751e-13)
(1.860130512e-12 1.435295701e-15 2.391789756e-13)
(1.678421407e-12 1.366477955e-15 2.518731489e-13)
(1.804972551e-12 1.410902437e-15 3.218828211e-13)
(1.602851157e-12 1.639557037e-15 3.181224267e-13)
(1.652128597e-12 1.651141016e-15 3.86319599e-13)
(1.555335563e-12 1.166128291e-15 4.254865136e-13)
(1.405838854e-12 1.281702646e-15 4.437818663e-13)
(1.346342132e-12 1.086390432e-15 4.993788817e-13)
(1.335812283e-12 9.90625812e-16 5.780314487e-13)
(1.189553975e-12 1.007765292e-15 6.024292431e-13)
(1.143234226e-12 8.136099107e-16 6.910950965e-13)
(8.913380984e-13 5.308166602e-16 6.487277407e-13)
(8.36433605e-13 5.569727857e-16 7.42356551e-13)
(7.226110544e-13 1.913839809e-16 8.172330734e-13)
(5.708457254e-13 1.258661584e-16 8.458646723e-13)
(4.301481082e-13 -1.899846366e-17 9.116523185e-13)
(2.638727782e-13 -4.431014012e-16 9.432951883e-13)
(1.250550414e-13 -2.576648947e-16 9.922170415e-13)
(2.610705506e-16 -1.721677091e-21 -3.368699403e-15)
(2.326513603e-15 3.340114113e-18 -1.133392197e-14)
(5.539094236e-15 4.022469762e-18 -1.876262571e-14)
(1.079335052e-14 6.935602475e-18 -2.712273997e-14)
(2.029649204e-14 1.994687785e-17 -3.873408867e-14)
(2.557207893e-14 2.89160232e-17 -4.112407811e-14)
(5.079452302e-14 4.367380889e-17 -6.817999405e-14)
(4.26622442e-14 3.088462982e-17 -4.855111179e-14)
(7.118733796e-14 6.430732155e-17 -7.57825388e-14)
(1.11763772e-13 1.054464941e-16 -1.038685533e-13)
(1.225519815e-13 9.727156126e-17 -1.025095735e-13)
(1.187864113e-13 8.873815336e-17 -9.074586438e-14)
(1.785812854e-13 1.630103338e-16 -1.276671513e-13)
(1.901366713e-13 1.572339257e-16 -1.250938904e-13)
(2.48370049e-13 1.873521487e-16 -1.500970451e-13)
(2.73240878e-13 2.697988415e-16 -1.561742257e-13)
(3.218662131e-13 3.821204665e-16 -1.722249015e-13)
(3.670097637e-13 2.928265765e-16 -1.827293574e-13)
(4.409026594e-13 3.96972529e-16 -2.097860854e-13)
(4.832510749e-13 4.26318308e-16 -2.169290358e-13)
(5.704363896e-13 5.019248559e-16 -2.439651389e-13)
(5.236801246e-13 3.020335251e-16 -2.108761836e-13)
(6.169268821e-13 4.219195554e-16 -2.332836895e-13)
(6.972349779e-13 5.571633079e-16 -2.566414514e-13)
(6.985935807e-13 5.515034592e-16 -2.42821665e-13)
(7.79937894e-13 5.556502289e-16 -2.605391338e-13)
(8.521276765e-13 7.360838135e-16 -2.728981345e-13)
(9.790898584e-13 7.767358144e-16 -2.943891961e-13)
(1.056923893e-12 9.085798109e-16 -3.090147789e-13)
(9.80159773e-13 7.736243737e-16 -2.762399615e-13)
(1.04113902e-12 8.103780112e-16 -2.849696526e-13)
(1.266460318e-12 9.944685617e-16 -3.304087176e-13)
(1.260833026e-12 9.344156537e-16 -3.15161057e-13)
(1.388363476e-12 1.427064124e-15 -3.391901738e-13)
(1.421631283e-12 1.215996697e-15 -3.386646996e-13)
(1.474858118e-12 1.047756251e-15 -3.262857007e-13)
(1.422068843e-12 1.127546158e-15 -3.044133173e-13)
(1.717664043e-12 1.49304122e-15 -3.503882207e-13)
(1.520262479e-12 1.176467369e-15 -2.965732065e-13)
(1.755953127e-12 1.387608113e-15 -3.334062996e-13)
(1.847813528e-12 1.525173893e-15 -3.339029081e-13)
(1.951793243e-12 1.594665533e-15 -3.367472765e-13)
(1.956902597e-12 1.425948362e-15 -3.178200859e-13)
(2.10907487e-12 1.65962267e-15 -3.304768135e-13)
(2.019995854e-12 1.434733962e-15 -3.024528004e-13)
(2.016373851e-12 1.565741424e-15 -2.91479976e-13)
(2.314126191e-12 1.642112875e-15 -3.141963323e-13)
(2.358312624e-12 1.771656555e-15 -3.080614531e-13)
(2.419880584e-12 1.920389537e-15 -2.935799772e-13)
(2.5421435e-12 1.980412964e-15 -2.897070652e-13)
(2.415683384e-12 1.549496687e-15 -2.599463204e-13)
(2.454623575e-12 1.877137481e-15 -2.503471116e-13)
(2.485641053e-12 1.894629149e-15 -2.300301235e-13)
(2.69595363e-12 2.127973546e-15 -2.285679374e-13)
(2.558387651e-12 2.171579284e-15 -2.040579339e-13)
(2.805203431e-12 2.439573292e-15 -2.084423304e-13)
(2.692080097e-12 1.905732555e-15 -1.691537992e-13)
(3.184286856e-12 2.565677639e-15 -1.750392075e-13)
(2.815737031e-12 1.984252613e-15 -1.262264568e-13)
(2.865061947e-12 1.982096178e-15 -1.094321865e-13)
(2.75736726e-12 1.869179818e-15 -6.572686526e-14)
(3.084611425e-12 2.548449016e-15 -5.844694293e-14)
(2.805444045e-12 1.939643798e-15 -1.902103394e-14)
(2.785171223e-12 2.054418787e-15 1.009427683e-14)
(2.941485665e-12 1.919485207e-15 4.405947927e-14)
(2.791763812e-12 1.805430589e-15 8.181665679e-14)
(2.90211805e-12 1.988363609e-15 1.176198308e-13)
(3.054923028e-12 2.00369049e-15 1.629248603e-13)
(2.822322681e-12 2.144776239e-15 1.925882055e-13)
(2.600154972e-12 1.670896618e-15 2.257645311e-13)
(2.692486328e-12 1.870410106e-15 2.789955009e-13)
(2.480086253e-12 1.675488697e-15 3.15373128e-13)
(2.613159764e-12 2.047204598e-15 3.812108731e-13)
(2.535197361e-12 1.522075389e-15 4.43255251e-13)
(2.429293363e-12 1.665289981e-15 4.86597544e-13)
(2.362409523e-12 1.572318728e-15 5.49467468e-13)
(2.238691617e-12 1.385812959e-15 6.051512791e-13)
(2.194460128e-12 1.325611275e-15 6.749693161e-13)
(2.170734229e-12 1.362878436e-15 7.686639601e-13)
(2.004952384e-12 1.11846759e-15 8.257394077e-13)
(1.866455218e-12 1.051897698e-15 8.904907185e-13)
(1.701098051e-12 8.435163502e-16 9.536819849e-13)
(1.517509222e-12 8.26562238e-16 1.003354958e-12)
(1.452173947e-12 7.243164176e-16 1.141723782e-12)
(1.257211598e-12 3.875536094e-16 1.215233227e-12)
(1.102652993e-12 4.532519404e-16 1.334150922e-12)
(9.068095392e-13 1.358804226e-16 1.434750331e-12)
(6.842721207e-13 -2.328511651e-16 1.520839042e-12)
(4.51823314e-13 -5.519087051e-16 1.651327284e-12)
(2.150305768e-13 -4.584582001e-16 1.720683797e-12)
(2.340656491e-16 1.495777875e-19 -3.13371747e-15)
(2.712796163e-15 1.498916458e-19 -1.667372412e-14)
(7.256725384e-15 4.841931172e-18 -2.914544382e-14)
(1.833259228e-14 1.234497476e-17 -5.201315785e-14)
(2.638780299e-14 2.183216281e-17 -6.047076835e-14)
(4.53128646e-14 4.011066515e-17 -8.546260295e-14)
(5.665768391e-14 4.097393363e-17 -8.868733022e-14)
(8.729310987e-14 7.554731397e-17 -1.19147579e-13)
(1.070095291e-13 7.057876368e-17 -1.27527673e-13)
(1.216476971e-13 6.647811577e-17 -1.303753022e-13)
(1.457369796e-13 7.946062873e-17 -1.413169525e-13)
(2.06607994e-13 1.526879812e-16 -1.855942565e-13)
(2.287816966e-13 1.760868903e-16 -1.850177875e-13)
(2.61764841e-13 1.872994047e-16 -1.989653755e-13)
(2.637606194e-13 1.676957916e-16 -1.849230074e-13)
(3.750389709e-13 3.437981028e-16 -2.476972978e-13)
(3.980313833e-13 2.855202933e-16 -2.493676623e-13)
(5.003105148e-13 3.10203358e-16 -2.893686094e-13)
(4.845368348e-13 3.868649426e-16 -2.644814402e-13)
(6.434604388e-13 3.67885282e-16 -3.367931128e-13)
(6.694236327e-13 4.789082295e-16 -3.336883637e-13)
(6.143348285e-13 2.802109431e-16 -2.874482322e-13)
(9.145824937e-13 7.01152203e-16 -4.116802437e-13)
(7.42955733e-13 4.966041853e-16 -3.156826956e-13)
(8.605715335e-13 4.722499204e-16 -3.503657836e-13)
(1.029335542e-12 8.140466564e-16 -4.023091782e-13)
(1.071436312e-12 5.716815318e-16 -3.961698043e-13)
(1.164954765e-12 6.740458416e-16 -4.161001317e-13)
(1.314352241e-12 7.672408826e-16 -4.440957366e-13)
(1.441102872e-12 1.114404279e-15 -4.739223997e-13)
(1.45969442e-12 8.585246074e-16 -4.561359973e-13)
(1.568983649e-12 1.004297878e-15 -4.686246316e-13)
(1.606011059e-12 1.058471442e-15 -4.667289228e-13)
(1.829147028e-12 1.058409663e-15 -4.971745214e-13)
(1.865468883e-12 1.206789433e-15 -4.950823362e-13)
(1.986212486e-12 1.172643657e-15 -5.094846123e-13)
(2.139763595e-12 1.360717812e-15 -5.169108905e-13)
(2.175326931e-12 1.231980887e-15 -5.038820593e-13)
(2.259636099e-12 1.367393849e-15 -5.034611974e-13)
(2.226078759e-12 1.567085176e-15 -4.807222472e-13)
(2.131568641e-12 1.530223717e-15 -4.40098675e-13)
(2.482489989e-12 1.616740208e-15 -4.872149545e-13)
(2.646400455e-12 1.754805591e-15 -5.031208715e-13)
(2.655373928e-12 1.751575161e-15 -4.839413043e-13)
(2.934259793e-12 1.665578804e-15 -4.991259209e-13)
(2.897943557e-12 1.420124549e-15 -4.615687697e-13)
(3.023215961e-12 1.999984266e-15 -4.737189983e-13)
(3.075439207e-12 2.015297922e-15 -4.507325444e-13)
(3.085853774e-12 1.979134052e-15 -4.268571993e-13)
(3.006188555e-12 1.736316516e-15 -3.825870993e-13)
(3.578442509e-12 2.177541395e-15 -4.363648703e-13)
(3.327497768e-12 1.968703505e-15 -3.686202699e-13)
(3.553311969e-12 2.298175541e-15 -3.748415124e-13)
(3.620370869e-12 1.938121989e-15 -3.337157896e-13)
(3.372040173e-12 2.303311882e-15 -2.980258116e-13)
(3.45026885e-12 1.916273196e-15 -2.672181726e-13)
(3.557101446e-12 1.998349979e-15 -2.308934622e-13)
(3.590467672e-12 2.016050483e-15 -2.164393356e-13)
(3.774323521e-12 1.906102622e-15 -1.747943758e-13)
(3.550288752e-12 2.062005603e-15 -1.392991067e-13)
(3.227076026e-12 1.631915842e-15 -8.300216496e-14)
(3.527933051e-12 1.774942267e-15 -6.03621971e-14)
(3.617415694e-12 2.179854618e-15 -2.89401149e-14)
(3.681232205e-12 1.94380531e-15 1.843070715e-14)
(3.808401415e-12 2.004059256e-15 6.896573142e-14)
(3.805378995e-12 2.111472372e-15 1.110382133e-13)
(3.734199294e-12 2.035229856e-15 1.707220885e-13)
(3.513439368e-12 1.920841354e-15 2.164576713e-13)
(3.423715168e-12 1.977092432e-15 2.610628506e-13)
(3.570124644e-12 2.045181581e-15 3.437747958e-13)
(3.520861082e-12 1.926366381e-15 4.059202271e-13)
(3.579801818e-12 1.768958291e-15 4.935228303e-13)
(3.184351796e-12 1.708908644e-15 5.108340619e-13)
(3.181198339e-12 1.661671882e-15 5.979951728e-13)
(3.199288747e-12 1.429235372e-15 6.947816524e-13)
(3.076776064e-12 1.778605383e-15 7.663743961e-13)
(2.98132352e-12 1.543789804e-15 8.644202442e-13)
(2.697240878e-12 1.336925962e-15 8.95275491e-13)
(2.697861041e-12 1.200436217e-15 1.032759511e-12)
(2.599065953e-12 1.132194151e-15 1.152026208e-12)
(2.578050019e-12 1.022535174e-15 1.321009262e-12)
(2.264290562e-12 1.161516035e-15 1.349409972e-12)
(2.141484479e-12 1.026018077e-15 1.494503139e-12)
(1.875295796e-12 6.819183402e-16 1.556526556e-12)
(1.786828758e-12 6.720367397e-16 1.788755183e-12)
(1.595170937e-12 5.003465347e-16 1.976171667e-12)
(1.286838744e-12 3.227027536e-16 2.030168847e-12)
(1.085460242e-12 2.717225108e-16 2.361124755e-12)
(8.21582702e-13 1.001078908e-16 2.67625294e-12)
(4.244675538e-13 2.743448203e-18 2.60027008e-12)
(6.380778261e-16 5.066877715e-19 -7.760429007e-15)
(5.496007097e-15 4.508807819e-19 -3.736968544e-14)
(1.425454203e-14 1.000400116e-17 -6.355863424e-14)
(2.082236951e-14 1.468143274e-17 -7.067338133e-14)
(3.27851979e-14 2.159932458e-17 -8.241579163e-14)
(4.812404132e-14 3.047594282e-17 -1.008195814e-13)
(7.173137011e-14 4.532046387e-17 -1.304328076e-13)
(1.24273492e-13 8.917403021e-17 -1.941981201e-13)
(1.268942071e-13 6.771977932e-17 -1.735649988e-13)
(1.684133437e-13 9.414752673e-17 -2.079385372e-13)
(1.63732791e-13 1.070167964e-16 -1.806481486e-13)
(2.477084987e-13 1.458757446e-16 -2.507477608e-13)
(2.994604113e-13 1.707712395e-16 -2.782875238e-13)
(3.383113694e-13 2.120360854e-16 -2.923511935e-13)
(4.216138189e-13 2.539754358e-16 -3.388584373e-13)
(4.853725257e-13 2.783169451e-16 -3.656261736e-13)
(4.903800513e-13 3.020659626e-16 -3.465183948e-13)
(6.476595979e-13 4.74379289e-16 -4.315190496e-13)
(6.547853735e-13 4.582684714e-16 -4.119380325e-13)
(7.29852886e-13 3.439271352e-16 -4.32377102e-13)
(9.752424757e-13 4.879738883e-16 -5.451373681e-13)
(8.889897625e-13 4.044491076e-16 -4.720508783e-13)
(8.715252284e-13 3.923884877e-16 -4.371556303e-13)
(1.045915704e-12 4.971341087e-16 -5.03246102e-13)
(1.308463007e-12 7.838665052e-16 -6.018391539e-13)
(1.275679765e-12 6.80628893e-16 -5.603439582e-13)
(1.383940512e-12 7.228305146e-16 -5.775339726e-13)
(1.411504391e-12 7.375583717e-16 -5.684244305e-13)
(1.575565961e-12 8.540734657e-16 -6.065610033e-13)
(1.617628771e-12 9.026707165e-16 -5.971471057e-13)
(1.727062623e-12 9.000103158e-16 -6.087431945e-13)
(1.828037362e-12 1.178500915e-15 -6.270735636e-13)
(2.055732421e-12 8.628546799e-16 -6.536218956e-13)
(2.003362539e-12 1.028894411e-15 -6.17513468e-13)
(2.309968797e-12 1.137391814e-15 -6.865136548e-13)
(2.524736699e-12 1.150242045e-15 -7.190005622e-13)