/*--------------------------------*- C++ -*----------------------------------*\
| =========                 |                                                 |
| \\      /  F ield         | OpenFOAM: The Open Source CFD Toolbox           |
|  \\    /   O peration     | Version:  2206                                  |
|   \\  /    A nd           | Website:  www.openfoam.com                      |
|    \\/     M anipulation  |                                                 |
\*---------------------------------------------------------------------------*/
FoamFile
{
    version     2.0;
    format      ascii;
    arch        "LSB;label=32;scalar=64";
    class       volScalarField;
    location    "0.01";
    object      rho;
}
// * * * * * * * * * * * * * * * * * * * * * * * * * * * * * * * * * * * * * //

dimensions      [1 -3 0 0 0 0 0];

internalField   nonuniform List<scalar> 
18900
(
6.067935008
6.06793748
6.067979586
6.068030921
6.068103746
6.068195018
6.068297238
6.068432818
6.068577669
6.068736594
6.06890988
6.069102032
6.069311999
6.069531283
6.069769691
6.070021376
6.070284948
6.07055901
6.070847048
6.071150637
6.071460397
6.071781441
6.072112771
6.072450372
6.072796188
6.073154371
6.073517632
6.07388504
6.074259992
6.074638713
6.075022875
6.075412314
6.075802036
6.076194763
6.076588736
6.076986718
6.077383582
6.07777777
6.078175318
6.078570105
6.078964641
6.079356224
6.079744803
6.080132535
6.080514542
6.080892687
6.081265886
6.081636597
6.081999889
6.082359916
6.082713787
6.083060339
6.083400738
6.083735316
6.084063916
6.084383118
6.084696859
6.085001303
6.085299089
6.08558952
6.085872039
6.086145082
6.08641066
6.086668058
6.086917198
6.087157356
6.087389224
6.087612317
6.08782497
6.08803121
6.088226653
6.088413924
6.088591691
6.088760492
6.08892044
6.08907052
6.08921185
6.089343826
6.089466262
6.089579636
6.089682306
6.089775352
6.089859368
6.089932881
6.089996409
6.090048718
6.090091232
6.090122787
6.090143578
6.090154332
6.067857183
6.067847531
6.067889149
6.067938905
6.068015523
6.0680993
6.068202825
6.068331102
6.068484851
6.068645886
6.068814669
6.069007399
6.069217734
6.069440277
6.069672331
6.069925593
6.070192876
6.070462523
6.070750316
6.07105758
6.071365424
6.071682047
6.072019058
6.072356097
6.072703734
6.073061995
6.073426899
6.073791254
6.074164916
6.074548151
6.074934844
6.075321964
6.075712068
6.076107429
6.076499677
6.076901896
6.077297385
6.077695513
6.078096388
6.078491856
6.078885906
6.079278132
6.079669736
6.080059079
6.080443073
6.080821431
6.081195032
6.08156853
6.081935851
6.082295522
6.082649708
6.083000356
6.083342584
6.083678108
6.084009054
6.084330439
6.084645199
6.084950922
6.085251871
6.085544275
6.085828857
6.086104258
6.086372706
6.086631936
6.086882226
6.087124933
6.087359982
6.087586316
6.087803668
6.088009739
6.08820902
6.08839884
6.088579237
6.08875094
6.08891561
6.089068525
6.089212551
6.08934787
6.089472927
6.089589847
6.089695978
6.089793091
6.089880368
6.089957195
6.090023078
6.090078554
6.090122981
6.090157247
6.090178518
6.090190538
6.067665739
6.067644521
6.067688007
6.067739597
6.067826963
6.067898167
6.068005695
6.068115579
6.068276969
6.068436592
6.06861219
6.068804393
6.069005668
6.069235368
6.069468736
6.069720719
6.069989982
6.070259938
6.070548596
6.070858425
6.071167686
6.071482583
6.071824082
6.07215822
6.072511045
6.072869951
6.073239976
6.07360358
6.073978279
6.074366585
6.074756409
6.075145479
6.075532865
6.075937658
6.07633347
6.076736727
6.077131109
6.077536229
6.077942799
6.078341075
6.078733737
6.079130527
6.079526158
6.079921168
6.080304396
6.080687381
6.081067644
6.081446031
6.081814729
6.082178585
6.082536889
6.082893455
6.083239807
6.083575503
6.083913271
6.084238683
6.084558725
6.08486795
6.085175929
6.085472326
6.085760026
6.086039698
6.08631438
6.086576169
6.086831891
6.087077749
6.087320503
6.087550832
6.08777454
6.087985305
6.088190251
6.088385769
6.088572415
6.08875021
6.088920307
6.089080416
6.089229855
6.089371183
6.089503505
6.089626387
6.089739168
6.089844197
6.089937441
6.090021959
6.090093237
6.090154372
6.09020391
6.090242941
6.090267145
6.09028123
6.067395092
6.067388052
6.067436553
6.067472026
6.067561594
6.067631196
6.067729366
6.067843566
6.068001837
6.068154497
6.068336032
6.068530321
6.068723891
6.068967304
6.069195856
6.069444279
6.06971573
6.069984341
6.070274659
6.070580731
6.070892449
6.071221134
6.071550911
6.071893885
6.072251134
6.072607008
6.072979152
6.073347727
6.073730474
6.074123103
6.07451338
6.074904947
6.07529804
6.075702506
6.076107638
6.076510616
6.076914066
6.077318146
6.077733858
6.078134512
6.078532664
6.078931524
6.079333251
6.079735539
6.080119976
6.080507917
6.080898066
6.081279821
6.08165117
6.082021736
6.082386827
6.08274659
6.083100365
6.083440463
6.083786554
6.084116098
6.08444111
6.084755736
6.085073439
6.08537735
6.085669282
6.085954334
6.08623645
6.086503632
6.086765472
6.087019433
6.087267685
6.087503764
6.087735555
6.087956085
6.088166351
6.08837184
6.088565452
6.088751697
6.08892813
6.089097845
6.08925509
6.089406088
6.089547226
6.08967841
6.089800461
6.089915649
6.090018335
6.090111968
6.090192747
6.090263135
6.090321653
6.090366337
6.090397256
6.090414713
6.0670635
6.067054135
6.067090208
6.067122233
6.067210493
6.067287233
6.067381507
6.067500281
6.067650951
6.067798102
6.067985443
6.068177109
6.068370077
6.068610793
6.068841839
6.069088931
6.069359483
6.069630413
6.069931248
6.070228137
6.070539302
6.070887084
6.071210252
6.071563786
6.071919918
6.07227934
6.072652048
6.073027062
6.073412522
6.073811522
6.074207031
6.074597499
6.075000819
6.075404778
6.075814392
6.076223375
6.076636574
6.077044047
6.077465333
6.077873417
6.078280537
6.078683261
6.079089115
6.07949437
6.079888322
6.080287316
6.080680561
6.081067536
6.081446213
6.081822138
6.082196505
6.082564006
6.082920828
6.083272477
6.083624979
6.08396121
6.084293215
6.084616155
6.084941303
6.085254463
6.085557028
6.085848639
6.086138243
6.086414143
6.086682921
6.086946204
6.08720134
6.087448129
6.087688627
6.087918071
6.088138414
6.088353331
6.088557389
6.088753174
6.088939804
6.089118998
6.089288295
6.089450201
6.089600906
6.089744502
6.089878952
6.090006469
6.090121908
6.090227367
6.090322618
6.090406261
6.090478439
6.090534704
6.090575027
6.090601358
6.066637951
6.066617005
6.066654041
6.066681809
6.066774631
6.066842669
6.066950552
6.067057938
6.067210549
6.067364522
6.067556269
6.067729854
6.067932867
6.068164754
6.068406901
6.068650249
6.06892426
6.069195678
6.069504065
6.06980025
6.070108495
6.070464965
6.070791497
6.071154022
6.071506077
6.071872505
6.072252303
6.072634946
6.073024336
6.073428263
6.073827664
6.07422708
6.074631487
6.075042514
6.075454803
6.075871023
6.076290839
6.076709741
6.077136066
6.077551629
6.077964545
6.078374096
6.078786032
6.079200857
6.079601105
6.080012648
6.080412195
6.080809476
6.08119686
6.081580376
6.081959284
6.082337782
6.082702199
6.083065919
6.083427033
6.083772604
6.084113942
6.084450964
6.084780929
6.085104875
6.08541646
6.085718226
6.086016295
6.086301479
6.08658134
6.086855169
6.087120995
6.08737937
6.087628561
6.087867467
6.088100883
6.088327251
6.088544392
6.088751878
6.088950591
6.08914213
6.089324462
6.089498903
6.089662352
6.089819792
6.089969663
6.090111251
6.090242447
6.090365979
6.090479555
6.090582361
6.090673294
6.090751185
6.090804835
6.090840762
6.066076738
6.066079164
6.066130472
6.066157947
6.066252127
6.066316346
6.066422014
6.066530065
6.066681189
6.066839225
6.067032498
6.067203686
6.067402704
6.067635009
6.067875904
6.068128806
6.068403438
6.068674678
6.068990516
6.069292666
6.069596547
6.06995591
6.070298142
6.070654502
6.071014823
6.071390917
6.071775304
6.072163071
6.072558448
6.072974086
6.073379975
6.073784295
6.074196488
6.074612958
6.075029836
6.075457504
6.075889219
6.076312683
6.076744886
6.077168343
6.077587051
6.078010687
6.078430001
6.078855448
6.079265279
6.079689655
6.080097511
6.080506344
6.080901543
6.081294849
6.081688507
6.082076076
6.082448332
6.082825571
6.083194777
6.083552063
6.083904465
6.084255484
6.084594813
6.084926629
6.0852475
6.085564513
6.085873412
6.086168816
6.086462204
6.086748535
6.087026159
6.087294802
6.087554468
6.087807066
6.088055708
6.088294713
6.088524515
6.088745423
6.088958998
6.089163533
6.08936
6.089548677
6.089726668
6.089901187
6.090067736
6.09022619
6.090375986
6.09051894
6.090657173
6.090788031
6.090899711
6.091040118
6.091103738
6.091284859
6.065465749
6.065475707
6.065544062
6.065557581
6.065636099
6.065697916
6.065806385
6.065917831
6.066056477
6.06622797
6.066413164
6.066586271
6.066781272
6.067016521
6.067268803
6.067519658
6.067794145
6.068065954
6.06838909
6.068699553
6.069008173
6.069361049
6.069708292
6.070071221
6.070443599
6.070826423
6.071210625
6.071602576
6.072009221
6.072439291
6.072850346
6.073255919
6.073681771
6.074104265
6.074530451
6.074968396
6.07540808
6.075840985
6.076282816
6.076717848
6.077142711
6.077575494
6.078003131
6.07844656
6.078868665
6.079304851
6.079721736
6.080139937
6.080547895
6.080952859
6.081361693
6.081756935
6.082141931
6.082533663
6.082915194
6.083284952
6.083650652
6.084010118
6.084360507
6.084704644
6.085041868
6.085373886
6.085691475
6.085997989
6.086307831
6.086608686
6.086900875
6.087181115
6.087456189
6.087721246
6.08798256
6.088237204
6.088481655
6.088716405
6.088946268
6.089166153
6.089378459
6.089582007
6.08977737
6.089968984
6.090152324
6.090329463
6.090499007
6.090661961
6.09081709
6.090984894
6.091102503
6.09131025
6.091363416
6.091643316
6.064807617
6.064797889
6.064842792
6.064884103
6.064940226
6.064988926
6.065109872
6.065204514
6.065327413
6.06552192
6.065709042
6.065874195
6.066069254
6.066310647
6.066567063
6.066818628
6.067092676
6.067362582
6.067683736
6.068013303
6.068332494
6.06867576
6.069029828
6.069395638
6.069773363
6.070163705
6.070550666
6.070951758
6.07136711
6.071803737
6.072226848
6.072641636
6.073073654
6.073506877
6.073947574
6.074388943
6.074838023
6.075286165
6.075734885
6.076176614
6.076616349
6.077061306
6.077507852
6.077963701
6.078390837
6.07883985
6.079267423
6.079693145
6.080119552
6.080538913
6.080957818
6.081370363
6.081768183
6.082170486
6.082564808
6.082951606
6.083331699
6.083702979
6.0840661
6.084423692
6.084777303
6.085123438
6.085457241
6.085780923
6.086103425
6.086416926
6.086725983
6.087020905
6.087310646
6.087589939
6.087866874
6.088136772
6.088397973
6.08864858
6.088892473
6.089130767
6.089359623
6.089579774
6.089794882
6.090001967
6.090201821
6.090395465
6.09058205
6.090765367
6.090927601
6.091128398
6.091240061
6.09148379
6.091530263
6.091814535
6.064069847
6.064028371
6.064029308
6.064109872
6.06415899
6.064186635
6.064312121
6.064397746
6.064506405
6.064715517
6.064907617
6.065073049
6.065270677
6.065508516
6.065760356
6.066017512
6.06629347
6.066565926
6.066887185
6.067233353
6.067551746
6.067902732
6.068251973
6.068617163
6.069013741
6.06940158
6.069797622
6.07021058
6.070625671
6.071071485
6.071506396
6.071933423
6.072373678
6.072814046
6.073269123
6.073721637
6.074180025
6.074636036
6.075096025
6.075546436
6.076002376
6.076463671
6.076927205
6.077395624
6.077828751
6.078290798
6.078731386
6.079168618
6.079612536
6.080041997
6.080477299
6.080905206
6.081316841
6.08173441
6.082143179
6.082546427
6.082938716
6.083327797
6.083706346
6.084079357
6.084449765
6.084813678
6.085163108
6.085501104
6.085839347
6.086167683
6.086492063
6.086803883
6.087111838
6.087408412
6.087700552
6.087983033
6.088262127
6.088531963
6.088793296
6.089047558
6.089292847
6.089530188
6.089764269
6.089988289
6.090205623
6.090413741
6.090614065
6.090818583
6.09098215
6.091208366
6.091314285
6.09158015
6.091624758
6.091896772
6.063215912
6.063118751
6.063115006
6.06323443
6.063283442
6.063279571
6.063412488
6.063510312
6.063582812
6.063811648
6.064001237
6.064171987
6.064377282
6.064603742
6.064859001
6.065115407
6.065396406
6.065667471
6.065994561
6.066337563
6.066665396
6.067031847
6.067382456
6.067749826
6.0681512
6.068549445
6.068939938
6.06936788
6.069785735
6.07023958
6.070684825
6.071129798
6.071578253
6.072032616
6.072492208
6.072957284
6.073427641
6.073896478
6.074360411
6.07482755
6.075296865
6.075778128
6.07625566
6.076736897
6.077182791
6.077658364
6.078108807
6.078559703
6.079015974
6.079464378
6.079917163
6.080359601
6.080791147
6.081219699
6.0816468
6.08206404
6.082472002
6.082877999
6.083277403
6.083667459
6.084052015
6.08443378
6.084801867
6.085156426
6.085509105
6.085856719
6.086193705
6.086521608
6.086850094
6.087166865
6.087473367
6.08777172
6.088067262
6.088357218
6.088636658
6.088909867
6.089172028
6.089427298
6.08967869
6.089922028
6.090156493
6.090380177
6.090591524
6.090817703
6.090985484
6.091233454
6.091340629
6.091622225
6.091669901
6.091927729
6.062224257
6.062157092
6.062105787
6.062253589
6.06230288
6.062282543
6.062414879
6.062536886
6.062573897
6.062797038
6.062983479
6.063178928
6.063381148
6.063581129
6.063866048
6.064109842
6.064377013
6.064665669
6.065001378
6.065344849
6.065682856
6.06605812
6.066420429
6.06678111
6.067187815
6.067595507
6.067996052
6.068419101
6.068853155
6.069311012
6.069772987
6.070220876
6.070681856
6.071150581
6.071625473
6.072104669
6.072584671
6.073062338
6.073544068
6.074023538
6.07450495
6.074999025
6.075489819
6.075982065
6.076450131
6.076933844
6.077398035
6.077869366
6.078339938
6.078807504
6.079269692
6.079727583
6.080180821
6.080625225
6.081073022
6.081506233
6.08192989
6.082354794
6.082769334
6.083177617
6.083578268
6.083975868
6.084365132
6.084740028
6.085109368
6.085475941
6.085827197
6.086173639
6.086519114
6.086855653
6.087179297
6.087496384
6.087807805
6.088117487
6.088418044
6.088708843
6.088990325
6.089264484
6.08953364
6.089793497
6.090046255
6.09029241
6.090515491
6.090762859
6.09093962
6.091208668
6.091322832
6.091616449
6.091678479
6.091913478
6.061102832
6.061095257
6.060988224
6.061182769
6.061217965
6.061197638
6.061303632
6.061437943
6.061467395
6.061676082
6.061856197
6.062086493
6.062270575
6.06245574
6.062757179
6.063000249
6.063263345
6.063568995
6.063906922
6.064241222
6.064590707
6.064969315
6.065342124
6.065706901
6.066118161
6.066534551
6.066952581
6.067378188
6.067822258
6.06828028
6.068757237
6.069210715
6.069686496
6.070168763
6.070659528
6.071152831
6.071641942
6.072133908
6.072630234
6.073130115
6.073621222
6.074124069
6.074628809
6.075132594
6.07562274
6.076115996
6.076605948
6.077093431
6.077583112
6.078064519
6.078543698
6.079020759
6.07948329
6.079947698
6.080413542
6.080861531
6.081305164
6.081749086
6.082181119
6.082608708
6.083026701
6.083442718
6.083848318
6.08423998
6.084631252
6.085018949
6.085391018
6.085753483
6.086114169
6.086469935
6.086813563
6.087149558
6.087480894
6.087808985
6.088129114
6.088436239
6.088738128
6.089034038
6.089321831
6.089599346
6.089873205
6.090143119
6.090376727
6.090650026
6.090839681
6.091130445
6.091254885
6.091566369
6.091638382
6.091860782
6.059928059
6.059912425
6.059777504
6.059981257
6.060010551
6.060033924
6.06008685
6.060222836
6.060269075
6.060453842
6.060628871
6.060889333
6.061055791
6.0612417
6.061534068
6.061791063
6.062049398
6.062370195
6.06270681
6.06303455
6.063399154
6.063784005
6.064156544
6.064527951
6.064936065
6.065372026
6.065806893
6.066241829
6.066683125
6.067145662
6.0676349
6.068106021
6.068591435
6.06908894
6.069593006
6.070095602
6.070607151
6.071110291
6.071616676
6.072137907
6.072637719
6.073152404
6.073671625
6.074186983
6.07470735
6.075206759
6.075712647
6.076219453
6.076730458
6.077229843
6.077730995
6.078227215
6.078706054
6.079185276
6.079664925
6.080133129
6.080598914
6.08105458
6.081505883
6.081956352
6.08239471
6.082829436
6.0832517
6.083663847
6.084072552
6.084479969
6.084871749
6.085256159
6.08563422
6.086007067
6.086373077
6.086728572
6.087077115
6.087422671
6.087758944
6.088088985
6.088410542
6.088726922
6.089037121
6.089335579
6.089625647
6.089918855
6.090170262
6.090473957
6.090673068
6.09099543
6.091130633
6.091466282
6.091542551
6.091759008
6.058771808
6.058589513
6.05846838
6.05865001
6.058661455
6.05873986
6.058774455
6.058910839
6.058954233
6.059133516
6.059303123
6.059569466
6.059733457
6.059913162
6.060203449
6.060471278
6.060728575
6.061060111
6.061397624
6.061716909
6.062102491
6.062480791
6.062866699
6.063236033
6.063650294
6.064096463
6.064543556
6.064999932
6.065441827
6.065913424
6.066405507
6.066896558
6.067401327
6.067901016
6.068419614
6.068931896
6.069461402
6.069977715
6.070509622
6.071042711
6.07156137
6.072090445
6.072623597
6.073154634
6.07368181
6.074202371
6.074727948
6.075255423
6.075781616
6.076304227
6.076828632
6.07733936
6.077836743
6.078335378
6.078833225
6.079315772
6.07980404
6.080279585
6.080749626
6.081220583
6.081673157
6.082132609
6.082572433
6.083005095
6.083433483
6.083859085
6.084270913
6.08467541
6.085068081
6.085458183
6.085846181
6.086223647
6.086592603
6.086956358
6.087310569
6.08766226
6.088004758
6.088338572
6.088666522
6.088990203
6.08929646
6.089620715
6.089888262
6.090223551
6.0904337
6.090790109
6.09093938
6.091309109
6.091373493
6.091613111
6.057473065
6.057121267
6.057072255
6.057211457
6.057222749
6.057337861
6.057364812
6.057469115
6.057540147
6.05769841
6.057878588
6.058124573
6.058299505
6.058479038
6.058754529
6.059024955
6.059291797
6.059636843
6.059966751
6.060298527
6.060690315
6.061062134
6.061462013
6.061843831
6.062257098
6.062712188
6.063165221
6.063642698
6.064101982
6.064570329
6.065069148
6.065577563
6.066099414
6.066609992
6.067135508
6.067657605
6.068200806
6.068749865
6.069298191
6.069842191
6.070382588
6.070928403
6.071476707
6.072020642
6.07256318
6.07310709
6.073649761
6.074198329
6.074744655
6.075285142
6.075824112
6.076356512
6.076874001
6.077391794
6.07790914
6.078414807
6.078925739
6.079419147
6.079911117
6.0803985
6.080871763
6.081342759
6.081804118
6.082259937
6.082709896
6.083155272
6.083587923
6.084009182
6.084422803
6.08483091
6.085234723
6.08563032
6.086021115
6.086405928
6.086778897
6.087148557
6.087507219
6.087865884
6.088207823
6.088560486
6.088878211
6.089234767
6.089510234
6.089886275
6.09011055
6.090502304
6.090670715
6.091069931
6.091118633
6.091407214
6.056026176
6.055588375
6.055604919
6.055661032
6.055700271
6.055827755
6.055843955
6.055929873
6.056029231
6.056151605
6.056351533
6.056567144
6.056746475
6.056924676
6.057194094
6.057473831
6.057737207
6.058077841
6.058418095
6.058765885
6.059160699
6.059536336
6.059945859
6.060332007
6.060762254
6.061220567
6.061685162
6.062165727
6.062637356
6.063115975
6.063633095
6.064150977
6.064678932
6.065209938
6.065741672
6.066287435
6.066836543
6.067404391
6.067970612
6.068529071
6.069086727
6.069656307
6.070221792
6.070782628
6.071346829
6.071910311
6.072481009
6.073047021
6.073609678
6.074170953
6.074718974
6.075270514
6.075815403
6.076356393
6.07689666
6.077430302
6.07795722
6.078465875
6.078977017
6.07948542
6.07997631
6.080467007
6.080950085
6.081427269
6.081898273
6.08236133
6.082815369
6.083255757
6.083692931
6.084120185
6.084541037
6.084957861
6.08536394
6.085766274
6.08616295
6.086549085
6.086923941
6.087300211
6.087662096
6.088033752
6.088369929
6.088751421
6.089043847
6.089444391
6.089689686
6.090120111
6.090311122
6.090716554
6.090766561
6.091131865
6.054399564
6.053900775
6.054046161
6.054027095
6.054060825
6.054171171
6.054192935
6.054275359
6.054374316
6.054497568
6.054694051
6.054879477
6.055070139
6.055254296
6.055529742
6.055806294
6.056066724
6.056411529
6.056754542
6.057109947
6.057495194
6.057907832
6.05831227
6.058704883
6.059153002
6.05962375
6.060084005
6.06057389
6.061054184
6.061555364
6.062072601
6.062601602
6.063143096
6.063687169
6.06424341
6.064804859
6.065371292
6.06595869
6.066532572
6.067106865
6.067677671
6.068271122
6.068855113
6.069431953
6.070022038
6.070612641
6.071202943
6.071792738
6.07237998
6.072957657
6.073521094
6.07409325
6.07465409
6.075221732
6.075787609
6.076346492
6.076897526
6.077425696
6.077955615
6.078480649
6.078994628
6.079504264
6.080006944
6.080507815
6.080997004
6.081476687
6.081951425
6.08241612
6.082875146
6.083323429
6.083764342
6.084199043
6.084623422
6.08504065
6.085454295
6.085862108
6.086256127
6.086645844
6.087028496
6.087413595
6.087771507
6.088156624
6.088485435
6.088882086
6.089174216
6.089597255
6.089849977
6.090173366
6.090293128
6.090744539
6.052572157
6.052112977
6.052387232
6.052288222
6.052273047
6.052381984
6.052376382
6.052480411
6.052598345
6.052726877
6.052908086
6.053074455
6.053240473
6.053464433
6.053734051
6.054010515
6.05428427
6.054623124
6.054980952
6.055341211
6.055722471
6.056142204
6.056561855
6.056967786
6.057412956
6.057907791
6.05837248
6.058863431
6.059363778
6.05988488
6.060395259
6.060946294
6.061490881
6.062046826
6.062623219
6.063210034
6.063799853
6.064403242
6.064987498
6.065573606
6.066164628
6.066773479
6.067381744
6.067980294
6.068595226
6.069209439
6.069825329
6.07043979
6.071044332
6.071638435
6.072227011
6.072818307
6.073398973
6.073987482
6.07457543
6.075152833
6.075732428
6.076294367
6.076840587
6.077384767
6.077925717
6.078456764
6.078976045
6.079490823
6.080005133
6.080504195
6.081002649
6.081489447
6.081968324
6.082438002
6.082899658
6.083355378
6.083802392
6.084237083
6.084666836
6.08508904
6.085501273
6.085906897
6.086306315
6.086705308
6.087080648
6.087470359
6.087821333
6.088218585
6.088542801
6.088961308
6.089148562
6.089428996
6.089646495
6.090234479
6.050555853
6.05016292
6.050539985
6.050397746
6.050351448
6.050449264
6.050428078
6.050530564
6.050669677
6.050804156
6.050985188
6.05115355
6.051295583
6.051545042
6.051814328
6.052076657
6.052376696
6.052724499
6.053094605
6.053448597
6.053818564
6.054240712
6.054672985
6.055087847
6.055546584
6.056047785
6.056526389
6.057033165
6.05754698
6.058076163
6.058607595
6.059171251
6.059736155
6.06029544
6.06088833
6.06149492
6.062110288
6.062718461
6.063324232
6.063932827
6.064542191
6.065166652
6.065792414
6.066415561
6.067050173
6.06769357
6.068333157
6.068964077
6.069589475
6.07020214
6.070823628
6.071438459
6.072038478
6.072651665
6.073262766
6.073855669
6.07445173
6.075040145
6.075612372
6.076179471
6.076748977
6.07730321
6.077844687
6.07837366
6.078909145
6.079434959
6.079958109
6.080463263
6.080960463
6.081451401
6.081937866
6.082416403
6.08288317
6.083339621
6.083786998
6.084227322
6.084656769
6.085076535
6.085489712
6.085901726
6.086292042
6.086692588
6.087058889
6.087463829
6.087798956
6.088074827
6.088156077
6.088506202
6.088762203
6.089321349
6.04857414
6.048125029
6.048513704
6.048348438
6.048284843
6.048379552
6.048386339
6.048433363
6.048594934
6.048741738
6.048910789
6.049073468
6.049216025
6.049474437
6.049761426
6.050015496
6.050322339
6.050683462
6.051068714
6.051415135
6.051783876
6.052201836
6.052655224
6.053080634
6.053562707
6.054040111
6.054539967
6.05507021
6.055602056
6.056142658
6.056702714
6.057281062
6.057858949
6.058432313
6.059037882
6.059668189
6.060291224
6.060914588
6.061538388
6.062166905
6.062804655
6.063448175
6.064098431
6.064749625
6.065403631
6.066067221
6.066731308
6.067381594
6.0680279
6.068666283
6.0693114
6.069946069
6.07057667
6.071210874
6.071843397
6.072465399
6.07307885
6.073689306
6.074287355
6.074880979
6.075471291
6.076054339
6.07661991
6.077175327
6.077726766
6.078274147
6.078819056
6.07934916
6.079869072
6.080381994
6.080889961
6.081390454
6.081882049
6.082361335
6.082828373
6.083287617
6.083733372
6.084173239
6.084598933
6.085025303
6.085435964
6.085847694
6.086240197
6.086610941
6.086790986
6.086968727
6.087164622
6.087547064
6.08779483
6.088382488
6.046443617
6.045939112
6.046294606
6.046169823
6.046014307
6.046109837
6.046176384
6.046169194
6.046356072
6.046526232
6.046686432
6.046825885
6.046991221
6.047247932
6.047542659
6.047806585
6.048105904
6.048483642
6.048886334
6.049237279
6.049619005
6.050026486
6.050489845
6.050934401
6.051442593
6.051902217
6.052416776
6.052957364
6.053517166
6.054078376
6.054664953
6.055254841
6.055854785
6.05644674
6.057067098
6.05771632
6.058348149
6.058991361
6.059640756
6.060282547
6.06094398
6.061610188
6.062289003
6.062967361
6.063644163
6.06433997
6.065019141
6.065690941
6.066354802
6.06701768
6.067693193
6.068355542
6.069011869
6.06966885
6.070315241
6.070966279
6.071611674
6.072242707
6.072861942
6.073480891
6.074096922
6.074711226
6.075308538
6.075889098
6.076461992
6.077031192
6.077595723
6.078150967
6.078695812
6.079234651
6.079762049
6.080286284
6.080802672
6.081306343
6.081796156
6.082273129
6.082740111
6.083197762
6.08364237
6.084080253
6.084508898
6.084955211
6.08527891
6.085492283
6.085630976
6.085906412
6.086187127
6.086565694
6.086779264
6.087477358
6.043944328
6.04354594
6.043847537
6.043759465
6.043566744
6.043665076
6.043748622
6.043753807
6.043946246
6.044079653
6.044297004
6.044429208
6.044616443
6.044868023
6.045147139
6.045426841
6.045750404
6.04612091
6.046526764
6.046903513
6.047295997
6.047715154
6.048164623
6.048642807
6.049152712
6.049631421
6.050146708
6.050715862
6.051292636
6.051871641
6.052475662
6.053089172
6.053713688
6.054329657
6.054964174
6.05562125
6.056274163
6.056942116
6.057606541
6.058274722
6.058957633
6.059654111
6.060350017
6.06104802
6.061755246
6.062477799
6.063186651
6.063881965
6.064564419
6.065259325
6.065953872
6.066631213
6.067314266
6.068007673
6.068684935
6.069362468
6.070034818
6.070691425
6.071331445
6.071979756
6.072625755
6.07326257
6.073889936
6.074503363
6.075100824
6.075702417
6.076289538
6.076873796
6.077445655
6.078003416
6.078559014
6.079102404
6.079636792
6.080164606
6.080683582
6.081179628
6.08166749
6.08214269
6.082608685
6.083069318
6.083518179
6.083888859
6.084068445
6.084283023
6.084519257
6.084856616
6.085156915
6.08553569
6.085746178
6.086571967
6.041260925
6.041071326
6.041240244
6.041207333
6.040980969
6.041069497
6.041201233
6.041187432
6.041405517
6.041484373
6.041714147
6.041871256
6.04208359
6.042325881
6.042577591
6.042872889
6.043213436
6.043610512
6.044006387
6.044392524
6.04479432
6.045236269
6.045671791
6.04617406
6.046687247
6.047217024
6.047731187
6.048315944
6.048905201
6.049489206
6.050116183
6.050767779
6.05138789
6.052046341
6.052721203
6.053382569
6.054051
6.054738009
6.055430833
6.056136054
6.05683726
6.057555192
6.058279343
6.059006885
6.059730528
6.060472052
6.061208405
6.06192776
6.062647117
6.063366513
6.064096901
6.064800851
6.065507176
6.066219286
6.066926637
6.06764171
6.068345032
6.069030267
6.069696749
6.070374307
6.071052652
6.07171004
6.072362285
6.073011389
6.073648135
6.074270095
6.074890459
6.075504377
6.076105912
6.076684181
6.077259179
6.077832808
6.078385747
6.078938291
6.079480305
6.079999274
6.080510541
6.081011618
6.081490731
6.081982434
6.08235525
6.082580622
6.082784897
6.083087939
6.083381742
6.083751803
6.084067029
6.08443471
6.084666327
6.08560196
6.03822465
6.038355663
6.038462136
6.038530363
6.038238313
6.038329419
6.038435144
6.038428905
6.038683084
6.038742691
6.038948458
6.039102177
6.039331271
6.039574331
6.03980923
6.040120357
6.040491062
6.040895424
6.041297451
6.041677489
6.042086952
6.042565997
6.0430235
6.043529769
6.044050816
6.044593943
6.045141513
6.045745427
6.046342713
6.046953114
6.047601747
6.048274446
6.048899483
6.049571499
6.050280975
6.050972093
6.051665123
6.052377364
6.053092064
6.053824008
6.054552778
6.055297921
6.05605541
6.056798066
6.057562288
6.058325148
6.059090521
6.059832395
6.060582064
6.061337412
6.062096072
6.062841375
6.063581118
6.064323876
6.065056025
6.065790687
6.066520609
6.06724127
6.067950937
6.068652577
6.069352893
6.070044106
6.070726386
6.071410589
6.072086146
6.072741805
6.073387053
6.074026254
6.074656211
6.075262153
6.075865959
6.076466497
6.077048651
6.077621458
6.078182076
6.078729666
6.079270395
6.079796536
6.080302906
6.080736895
6.080967686
6.081195104
6.081500099
6.081854854
6.08217284
6.082581975
6.082896326
6.083260105
6.083535388
6.084553022
6.035135947
6.035357843
6.035453004
6.035583787
6.035302167
6.035406926
6.035466992
6.035463632
6.035732845
6.035822413
6.035999474
6.036151854
6.036378372
6.036632245
6.03685826
6.037181706
6.037580274
6.037979445
6.038388495
6.038782396
6.0392149
6.039697652
6.040212827
6.040700351
6.041236309
6.041799168
6.042358166
6.042985354
6.043605443
6.044259286
6.044902237
6.045585547
6.046246517
6.046924104
6.047653682
6.048387176
6.049120837
6.049849116
6.050588348
6.05135013
6.052111953
6.052881747
6.053671236
6.054454387
6.055236827
6.056023839
6.056819451
6.057596965
6.058383312
6.059161899
6.059951809
6.060727486
6.061514046
6.062299665
6.06305831
6.0638195
6.064563301
6.065312873
6.066068656
6.066808147
6.067548422
6.068269326
6.068972623
6.069688053
6.0703942
6.071090748
6.071756795
6.07242906
6.073097246
6.073737812
6.074371129
6.074994982
6.075609589
6.07621173
6.076795268
6.077366422
6.077928745
6.078490846
6.078979274
6.079252695
6.079485454
6.079794944
6.080142543
6.080545037
6.080883787
6.081339366
6.081639441
6.082017573
6.082346123
6.083458493
6.032021451
6.032225178
6.032264075
6.032404704
6.032115673
6.032211099
6.032258424
6.032242792
6.032522298
6.03261478
6.032812207
6.032989985
6.03323039
6.033481165
6.033715041
6.034057619
6.034475012
6.034877176
6.035267226
6.035692021
6.03610592
6.03662096
6.037169315
6.037679467
6.038234926
6.038806509
6.039398317
6.040042693
6.040696218
6.041376269
6.042019647
6.042699645
6.043401753
6.044121478
6.044858784
6.045628286
6.04639044
6.047135488
6.047918795
6.048711143
6.049494965
6.050292527
6.051110862
6.051947786
6.05275
6.053560666
6.054383702
6.055202756
6.056026305
6.056835317
6.057643169
6.058468733
6.059290279
6.060109428
6.060915735
6.061708964
6.06247359
6.063254321
6.064049294
6.064831357
6.065605358
6.066360339
6.067092691
6.067844131
6.068587918
6.069306509
6.070007288
6.070707774
6.071409375
6.07209498
6.072761332
6.073414499
6.074056495
6.074687876
6.075301117
6.075904591
6.076494698
6.077059237
6.077418819
6.077627098
6.07793428
6.078335332
6.078688963
6.079134322
6.079523475
6.079998033
6.080307057
6.080722987
6.081072035
6.082315641
6.02893567
6.028875557
6.028976889
6.029030162
6.028697916
6.028817392
6.028847287
6.028838253
6.029097709
6.029147387
6.029384399
6.029592049
6.029852162
6.030097272
6.030376401
6.030752834