/*--------------------------------*- C++ -*----------------------------------*\
| =========                 |                                                 |
| \\      /  F ield         | OpenFOAM: The Open Source CFD Toolbox           |
|  \\    /   O peration     | Version:  2206                                  |
|   \\  /    A nd           | Website:  www.openfoam.com                      |
|    \\/     M anipulation  |                                                 |
\*---------------------------------------------------------------------------*/
FoamFile
{
    version     2.0;
    format      ascii;
    arch        "LSB;label=32;scalar=64";
    class       volScalarField;
    location    "0.01";
    object      SourceCheck;
}
// * * * * * * * * * * * * * * * * * * * * * * * * * * * * * * * * * * * * * //

dimensions      [0 0 0 0 0 0 0];

internalField   nonuniform List<scalar> 
18900
(
4.934346323e-18
1.482159867e-17
2.473642863e-17
3.467848855e-17
4.464743263e-17
5.464291705e-17
6.466460004e-17
7.471214141e-17
8.478520345e-17
9.488344963e-17
1.050065459e-16
1.1515416e-16
1.25325961e-16
1.355216208e-16
1.457408123e-16
1.5598321e-16
1.662484924e-16
1.765363376e-16
1.868464239e-16
1.971784393e-16
2.075320601e-16
2.179069781e-16
2.283028802e-16
2.387194563e-16
2.491563932e-16
2.596133914e-16
2.700901407e-16
2.805863383e-16
2.911016828e-16
3.016358771e-16
3.121886215e-16
3.227596134e-16
3.333485675e-16
3.439551868e-16
3.545791805e-16
3.652202547e-16
3.75878127e-16
3.865525117e-16
3.972431225e-16
4.079496713e-16
4.186718805e-16
4.294094765e-16
4.401621733e-16
4.509296986e-16
4.61711772e-16
4.725081304e-16
4.83318493e-16
4.94142591e-16
5.049801639e-16
5.158309385e-16
5.266946431e-16
5.375710299e-16
5.484598224e-16
5.593607765e-16
5.702736109e-16
5.81198085e-16
5.921339351e-16
6.030809169e-16
6.140387655e-16
6.250072349e-16
6.359860765e-16
6.469750381e-16
6.579738741e-16
6.689823454e-16
6.800002042e-16
6.910271992e-16
7.020631007e-16
7.131076657e-16
7.241606567e-16
7.352218386e-16
7.462909781e-16
7.57367826e-16
7.68452173e-16
7.795437731e-16
7.906423984e-16
8.017478332e-16
8.12859829e-16
8.239781739e-16
8.351026574e-16
8.462330217e-16
8.573690909e-16
8.685105956e-16
8.796573573e-16
8.90809148e-16
9.019657272e-16
9.131269351e-16
9.242924925e-16
9.354622443e-16
9.4663594e-16
9.578134005e-16
4.885025821e-18
1.467345166e-17
2.448917945e-17
3.433186502e-17
4.420116607e-17
5.409674209e-17
6.401825486e-17
7.396536766e-17
8.393774588e-17
9.393505672e-17
1.03956969e-16
1.140031542e-16
1.240732846e-16
1.341670345e-16
1.442840831e-16
1.544241035e-16
1.645867808e-16
1.747717955e-16
1.84978829e-16
1.952075723e-16
2.05457705e-16
2.157289221e-16
2.26020915e-16
2.363333707e-16
2.466659901e-16
2.570184651e-16
2.673904956e-16
2.777817801e-16
2.881920223e-16
2.986209217e-16
3.090681876e-16
3.195335186e-16
3.300166325e-16
3.405172349e-16
3.510350382e-16
3.615697512e-16
3.721210969e-16
3.826887849e-16
3.932725394e-16
4.038720698e-16
4.144871122e-16
4.251173794e-16
4.357625996e-16
4.464224998e-16
4.570968055e-16
4.677852437e-16
4.784875566e-16
4.892034675e-16
4.999327115e-16
5.106750291e-16
5.214301471e-16
5.321978205e-16
5.429777794e-16
5.53769767e-16
5.645735278e-16
5.753888077e-16
5.862153545e-16
5.97052913e-16
6.079012341e-16
6.1876007e-16
6.29629174e-16
6.405082974e-16
6.513972011e-16
6.622956292e-16
6.732033655e-16
6.841201419e-16
6.95045741e-16
7.059799063e-16
7.16922419e-16
7.27873041e-16
7.388315402e-16
7.497976762e-16
7.607712202e-16
7.717519676e-16
7.827396523e-16
7.937340845e-16
8.047350125e-16
8.157422315e-16
8.267555098e-16
8.377746343e-16
8.487993816e-16
8.59829536e-16
8.708648695e-16
8.819052011e-16
8.929502726e-16
9.039999132e-16
9.150538742e-16
9.261119668e-16
9.371739844e-16
9.48239722e-16
4.836198294e-18
1.452678542e-17
2.42444016e-17
3.398870611e-17
4.375936008e-17
5.355602643e-17
6.337837026e-17
7.322605818e-17
8.309875898e-17
9.299614325e-17
1.029178831e-16
1.12863653e-16
1.228331292e-16
1.328259889e-16
1.428419136e-16
1.528805809e-16
1.629416788e-16
1.730248907e-16
1.831299026e-16
1.932564033e-16
2.034040838e-16
2.13572638e-16
2.237617559e-16
2.339711381e-16
2.442004779e-16
2.544494764e-16
2.647178367e-16
2.750052549e-16
2.853114429e-16
2.956361016e-16
3.059789415e-16
3.163396726e-16
3.267180017e-16
3.371136468e-16
3.475263211e-16
3.57955736e-16
3.684016198e-16
3.788636774e-16
3.893416409e-16
3.99835231e-16
4.103441697e-16
4.208681836e-16
4.31407001e-16
4.419603516e-16
4.525279639e-16
4.631095676e-16
4.737049072e-16
4.843137122e-16
4.949357102e-16
5.055706508e-16
5.162182749e-16
5.268783178e-16
5.375505315e-16
5.482346419e-16
5.589304192e-16
5.696376004e-16
5.803559282e-16
5.910851619e-16
6.018250501e-16
6.12575348e-16
6.233358119e-16
6.341061947e-16
6.4488626e-16
6.556757593e-16
6.664744591e-16
6.772821233e-16
6.880985173e-16
6.989233971e-16
7.0975653e-16
7.205976966e-16
7.314466624e-16
7.423031883e-16
7.531670533e-16
7.640380327e-16
7.749159033e-16
7.85800431e-16
7.966914119e-16
8.07588604e-16
8.184918011e-16
8.294007861e-16
8.403153373e-16
8.51235241e-16
8.621602791e-16
8.730902453e-16
8.840249305e-16
8.949641203e-16
9.059075925e-16
9.168551553e-16
9.278066115e-16
9.387617365e-16
4.787858816e-18
1.438158517e-17
2.400207042e-17
3.364897723e-17
4.332197011e-17
5.302071536e-17
6.274488146e-17
7.249413842e-17
8.22681581e-17
9.206661459e-17
1.018891832e-16
1.117355417e-16
1.216053694e-16
1.314983472e-16
1.41414159e-16
1.513524864e-16
1.613130202e-16
1.712954468e-16
1.812994568e-16
1.913247373e-16
2.013709908e-16
2.114379053e-16
2.215251794e-16
2.316325152e-16
2.417596092e-16
2.519061654e-16
2.620718899e-16
2.722564818e-16
2.82459656e-16
2.926811162e-16
3.029205758e-16
3.131777498e-16
3.234523418e-16
3.33744079e-16
3.440526748e-16
3.543778439e-16
3.647193176e-16
3.750768033e-16
3.854500359e-16
3.958387416e-16
4.06242637e-16
4.166614597e-16
4.270949378e-16
4.375428042e-16
4.480047898e-16
4.584806299e-16
4.689700619e-16
4.794728251e-16
4.899886595e-16
5.005172928e-16
5.110584977e-16
5.216119866e-16
5.321775275e-16
5.427548463e-16
5.533437195e-16
5.639438751e-16
5.74555065e-16
5.851770601e-16
5.958096039e-16
6.064524444e-16
6.171053535e-16
6.277680872e-16
6.384403927e-16
6.491220565e-16
6.598128152e-16
6.705124534e-16
6.812207283e-16
6.919374196e-16
7.026622671e-16
7.133950722e-16
7.241355984e-16
7.348836098e-16
7.456388927e-16
7.564012019e-16
7.671703496e-16
7.77946088e-16
7.887281986e-16
7.995164814e-16
8.103106907e-16
8.211106361e-16
8.319160994e-16
8.42726843e-16
8.535426935e-16
8.64363405e-16
8.751887944e-16
8.860186361e-16
8.968527385e-16
9.076908698e-16
9.185328691e-16
9.293784871e-16
4.740002512e-18
1.423783624e-17
2.376216143e-17
3.331264402e-17
4.288895199e-17
5.249075499e-17
6.211772465e-17
7.17695344e-17
8.14458594e-17
9.114637682e-17
1.008707655e-16
1.106187064e-16
1.203898816e-16
1.301839761e-16
1.400006754e-16
1.498396657e-16
1.597006405e-16
1.695832894e-16
1.794873059e-16
1.894123813e-16
1.993582178e-16
2.093245087e-16
2.1931096e-16
2.293172681e-16
2.393431381e-16
2.493882776e-16
2.594523887e-16
2.695351837e-16
2.796363736e-16
2.89755667e-16
2.998927816e-16
3.100474273e-16
3.202193255e-16
3.304081909e-16
3.406137488e-16
3.508357168e-16
3.610738188e-16
3.713277805e-16
3.815973317e-16
3.918821933e-16
4.021821038e-16
4.124967839e-16
4.228259761e-16
4.331694124e-16
4.435268266e-16
4.538979603e-16
4.642825436e-16
4.746803242e-16
4.850910525e-16
4.955144526e-16
5.059502907e-16
5.163982934e-16
5.268582284e-16
5.37329827e-16
5.478128569e-16
5.583070563e-16
5.688121918e-16
5.793280121e-16
5.898542759e-16
6.003907465e-16
6.109371716e-16
6.214933274e-16
6.320589642e-16
6.42633852e-16
6.532177621e-16
6.638104487e-16
6.744116911e-16
6.850212654e-16
6.956389141e-16
7.062644412e-16
7.168976122e-16
7.275381931e-16
7.381859726e-16
7.488407142e-16
7.595022151e-16
7.701702468e-16
7.808445867e-16
7.915250369e-16
8.022113548e-16
8.129033572e-16
8.236008032e-16
8.343035018e-16
8.450112381e-16
8.557237925e-16
8.664409788e-16
8.771625659e-16
8.878883837e-16
8.986181914e-16
9.093518143e-16
9.200890261e-16
4.692508832e-18
1.409518139e-17
2.352408716e-17
3.297889541e-17
4.24592773e-17
5.196490589e-17
6.149545592e-17
7.105060404e-17
8.063002877e-17
9.023341035e-17
9.986043088e-17
1.095107742e-16
1.191841257e-16
1.288801738e-16
1.385986055e-16
1.483391144e-16
1.581013909e-16
1.678851328e-16
1.776900325e-16
1.875157889e-16
1.97362102e-16
2.072286748e-16
2.171152065e-16
2.270214084e-16
2.369469794e-16
2.46891631e-16
2.568550719e-16
2.668370172e-16
2.768371773e-16
2.868552652e-16
2.968910018e-16
3.069440997e-16
3.170142829e-16
3.271012711e-16
3.372047859e-16
3.473245569e-16
3.574603032e-16
3.676117558e-16
3.777786472e-16
3.879606982e-16
3.981576609e-16
4.083692396e-16
4.185952016e-16
4.288352646e-16
4.390891647e-16
4.493566645e-16
4.59637478e-16
4.69931362e-16
4.802380655e-16
4.90557325e-16
5.008889002e-16
5.11232523e-16
5.215879591e-16
5.319549588e-16
5.423332649e-16
5.527226486e-16
5.631228522e-16
5.735336464e-16
5.839547709e-16
5.943860215e-16
6.048271191e-16
6.152778588e-16
6.257379937e-16
6.362072817e-16
6.466855159e-16
6.571724335e-16
6.67667835e-16
6.781714797e-16
6.886831321e-16
6.992025835e-16
7.09729601e-16
7.20263969e-16
7.308054577e-16
7.413538587e-16
7.519089332e-16
7.624704877e-16
7.730383026e-16
7.836121478e-16
7.941918233e-16
8.047771189e-16
8.153678197e-16
8.25963718e-16
8.365646012e-16
8.471702703e-16
8.577805157e-16
8.683951414e-16
8.790139263e-16
8.896366973e-16
9.002632297e-16
9.10893332e-16
4.641279117e-18
1.394132708e-17
2.326736301e-17
3.261905949e-17
4.199609096e-17
5.139813379e-17
6.082486602e-17
7.027596745e-17
7.975111981e-17
8.925000667e-17
9.877231324e-17
1.083177263e-16
1.178859352e-16
1.274766303e-16
1.370895026e-16
1.4672425e-16
1.563805618e-16
1.660581439e-16
1.75756687e-16
1.85475898e-16
1.952154764e-16
2.049751293e-16
2.14754559e-16
2.245534762e-16
2.343715911e-16
2.442086102e-16
2.540642495e-16
2.639382258e-16
2.738302485e-16
2.83740041e-16
2.936673214e-16
3.036118067e-16
3.135732197e-16
3.235512963e-16
3.335457446e-16
3.435563038e-16
3.535826991e-16
3.636246611e-16
3.736819198e-16
3.837542121e-16
3.938412739e-16
4.039428342e-16
4.14058643e-16
4.241884294e-16
4.343319379e-16
4.444889215e-16
4.546591069e-16
4.648422462e-16
4.750380976e-16
4.852463941e-16
4.954669006e-16
5.056993556e-16
5.159435164e-16
5.261991461e-16
5.364659866e-16
5.467438121e-16
5.570323628e-16
5.673314242e-16
5.776407223e-16
5.879600585e-16
5.982891739e-16
6.086278393e-16
6.189758284e-16
6.293329065e-16
6.396988351e-16
6.500734015e-16
6.604563756e-16
6.708475186e-16
6.812466216e-16
6.916534531e-16
7.020677934e-16
7.124894334e-16
7.229181292e-16
7.333536971e-16
7.437958847e-16
7.542445051e-16
7.646993413e-16
7.751601597e-16
7.856267793e-16
7.960989629e-16
8.06576533e-16
8.170592485e-16
8.275469291e-16
8.380393661e-16
8.485363448e-16
8.590376776e-16
8.695431399e-16
8.800525724e-16
8.905657463e-16
9.010824793e-16
4.580315337e-18
1.375775701e-17
2.296017537e-17
3.218725211e-17
4.143867069e-17
5.07141163e-17
6.001327599e-17
6.933583855e-17
7.868149433e-17
8.804993578e-17
9.744085693e-17
1.068539531e-16
1.162889223e-16
1.257454628e-16
1.352232773e-16
1.447220666e-16
1.542415338e-16
1.63781388e-16
1.733413353e-16
1.82921085e-16
1.925203471e-16
2.021388357e-16
2.117762655e-16
2.214323468e-16
2.311068048e-16
2.407993562e-16
2.505097188e-16
2.602376186e-16
2.699827765e-16
2.797449182e-16
2.895237753e-16
2.99319069e-16
3.091305362e-16
3.189579071e-16
3.28800911e-16
3.386592879e-16
3.485327703e-16
3.584211042e-16
3.683240143e-16
3.782412579e-16
3.881725651e-16
3.981176885e-16
4.08076369e-16
4.180483541e-16
4.280333929e-16
4.380312366e-16
4.48041637e-16
4.580643384e-16
4.680991121e-16
4.78145702e-16
4.882038657e-16
4.982733665e-16
5.083539583e-16
5.184454106e-16
5.2854748e-16
5.386599322e-16
5.487825415e-16
5.589150625e-16
5.690572717e-16
5.792089302e-16
5.893698238e-16
5.995397165e-16
6.097183801e-16
6.199056011e-16
6.301011373e-16
6.403047861e-16
6.505163214e-16
6.607355194e-16
6.709621659e-16
6.811960395e-16
6.914369341e-16
7.016846307e-16
7.119389155e-16
7.22199588e-16
7.32466414e-16
7.427392121e-16
7.530177625e-16
7.633018537e-16
7.735912973e-16
7.838858702e-16
7.941853893e-16
8.044896285e-16
8.147984185e-16
8.251115429e-16
8.354288077e-16
8.45750005e-16
8.560749615e-16
8.66403475e-16
8.767353583e-16
8.870703993e-16
4.508142227e-18
1.353990221e-17
2.259464801e-17
3.167207766e-17
4.077189088e-17
4.989378917e-17
5.903747549e-17
6.820265479e-17
7.738903344e-17
8.659631961e-17
9.582422304e-17
1.05072455e-16
1.14340729e-16
1.236287589e-16
1.329362626e-16
1.422629564e-16
1.516085599e-16
1.609727953e-16
1.703553853e-16
1.797560512e-16
1.89174523e-16
1.986105293e-16
2.080637931e-16
2.175340477e-16
2.270210272e-16
2.365244662e-16
2.460440948e-16
2.555796518e-16
2.651308819e-16
2.746975126e-16
2.842792968e-16
2.938759678e-16
3.03487281e-16
3.131129691e-16
3.227527914e-16
3.324064883e-16
3.420738171e-16
3.517545214e-16
3.614483563e-16
3.711550824e-16
3.808744551e-16
3.906062255e-16
4.003501544e-16
4.10106003e-16
4.198735349e-16
4.296525074e-16
4.394427011e-16
4.492438585e-16
4.590557652e-16
4.688781833e-16
4.78710883e-16
4.885536337e-16
4.984062083e-16
5.082683898e-16
5.181399469e-16
5.280206475e-16
5.379102885e-16
5.478086325e-16
5.577154818e-16
5.676305893e-16
5.775537606e-16
5.87484775e-16
5.97423417e-16
6.073694765e-16
6.173227332e-16
6.272829956e-16
6.372500361e-16
6.472236583e-16
6.572036574e-16
6.67189812e-16
6.771819329e-16
6.871798224e-16
6.971832673e-16
7.071920853e-16
7.172060424e-16
7.272249835e-16
7.372486765e-16
7.472769653e-16
7.573096077e-16
7.67346454e-16
7.773872923e-16
7.874319347e-16
7.974801911e-16
8.075318747e-16
8.175868041e-16
8.27644789e-16
8.377056582e-16
8.477691924e-16
8.578352506e-16
8.679036296e-16
4.42562725e-18
1.329039629e-17
2.217522711e-17
3.107984106e-17
4.000396113e-17
4.894731193e-17
5.790961942e-17
6.689061089e-17
7.589001609e-17
8.490756569e-17
9.39429915e-17
1.029960275e-16
1.120664092e-16
1.211538735e-16
1.302581576e-16
1.393790023e-16
1.485161513e-16
1.576693435e-16
1.668383243e-16
1.760228394e-16
1.852226372e-16
1.944374676e-16
2.03667076e-16
2.129112182e-16
2.221696492e-16
2.314421188e-16
2.407283837e-16
2.500282017e-16
2.593413323e-16
2.686675333e-16
2.780065732e-16
2.873582078e-16
2.96722202e-16
3.060983264e-16
3.154863456e-16
3.248860249e-16
3.342971382e-16
3.437194568e-16
3.531527494e-16
3.62596794e-16
3.720513666e-16
3.815162378e-16
3.909911951e-16
4.00476004e-16
4.099704606e-16
4.19474334e-16
4.289874213e-16
4.385094853e-16
4.480403347e-16
4.575797485e-16
4.671275092e-16
4.76683409e-16
4.862472395e-16
4.958187997e-16
5.053978738e-16
5.1498426e-16
5.245777574e-16
5.34178151e-16
5.437852624e-16
5.533988694e-16
5.630187782e-16
5.726447901e-16
5.82276721e-16
5.919143596e-16
6.015575197e-16
6.112060084e-16
6.208596249e-16
6.305181896e-16
6.401815127e-16
6.498493953e-16
6.595216513e-16
6.691981166e-16
6.788785778e-16
6.88562869e-16
6.982507804e-16
7.079421809e-16
7.176368437e-16
7.273346158e-16
7.370352995e-16
7.467387395e-16
7.564447353e-16
7.661531396e-16
7.758637604e-16
7.855764264e-16
7.952909706e-16
8.050072254e-16
8.147250148e-16
8.244441755e-16
8.3416453e-16
8.438859351e-16
4.333734477e-18
1.301223437e-17
2.170709283e-17
3.041806041e-17
3.914488877e-17
4.788733117e-17
5.664514272e-17
6.541807963e-17
7.420589907e-17
8.300836049e-17
9.182522376e-17
1.00656251e-16
1.095012054e-16
1.183598516e-16
1.272319546e-16
1.361172825e-16
1.450156035e-16
1.539266864e-16
1.628503061e-16
1.717862322e-16
1.807342388e-16
1.896941035e-16
1.986655991e-16
2.076485072e-16
2.166426044e-16
2.256476701e-16
2.346634916e-16
2.43689851e-16
2.52726524e-16
2.617733087e-16
2.708299843e-16
2.798963408e-16
2.889721638e-16
2.980572511e-16
3.07151394e-16
3.162543789e-16
3.253660049e-16
3.344860719e-16
3.436143661e-16
3.527506946e-16
3.618948574e-16
3.710466466e-16
3.802058739e-16
3.893723301e-16
3.985458353e-16
4.07726179e-16
4.169131777e-16
4.26106638e-16
4.353063652e-16
4.445121725e-16
4.53723866e-16
4.629412671e-16
4.721641808e-16
4.813924288e-16
4.906258136e-16
4.998641763e-16
5.091073139e-16
5.183550487e-16
5.276072021e-16
5.368636053e-16
5.461240746e-16
5.553884182e-16
5.646564848e-16
5.739280866e-16
5.832030642e-16
5.924812217e-16
6.017624157e-16
6.110464457e-16
6.203331692e-16
6.296224124e-16
6.389139938e-16
6.482077686e-16
6.575035689e-16
6.668012067e-16
6.761005385e-16
6.854014228e-16
6.947036663e-16
7.040071144e-16
7.133116267e-16
7.226170324e-16
7.319231755e-16
7.412298999e-16
7.505370624e-16
7.598444962e-16
7.691520532e-16
7.784595822e-16
7.877669332e-16
7.970739547e-16
8.063804988e-16
8.156864276e-16
4.233485603e-18
1.270852521e-17
2.119550524e-17
2.969421068e-17
3.820442787e-17
4.672594415e-17
5.52585484e-17
6.380203033e-17
7.235618126e-17
8.092079345e-17
8.949566037e-17
9.808057761e-17
1.066753401e-16
1.152797463e-16
1.238935939e-16
1.325166828e-16
1.411488152e-16
1.497897891e-16
1.58439411e-16
1.670974893e-16
1.757638202e-16
1.84438219e-16
1.93120485e-16
2.018104351e-16
2.105078747e-16
2.1921262e-16
2.279244763e-16
2.366432645e-16
2.453687921e-16
2.541008846e-16
2.628393481e-16
2.715840101e-16
2.803346822e-16
2.890911878e-16
2.978533524e-16
3.066209895e-16
3.153939348e-16
3.241719996e-16
3.329550177e-16
3.417428126e-16
3.505352163e-16
3.593320552e-16
3.681331574e-16
3.769383542e-16
3.857474801e-16
3.945603703e-16
4.033768472e-16
4.121967611e-16
4.210199445e-16
4.298462252e-16
4.386754499e-16
4.475074566e-16
4.563420873e-16
4.651791783e-16
4.740185711e-16
4.828601176e-16
4.917036534e-16
5.005490271e-16
5.093960844e-16
5.182446754e-16
5.270946445e-16
5.359458388e-16
5.447981124e-16
5.536513211e-16
5.625053042e-16
5.713599236e-16
5.802150382e-16
5.890704865e-16
5.979261372e-16
6.067818415e-16
6.156374592e-16
6.244928503e-16
6.333478747e-16
6.422023835e-16
6.510562488e-16
6.599093386e-16
6.687614929e-16
6.776125801e-16
6.864624973e-16
6.953110684e-16
7.041581893e-16
7.13003713e-16
7.21847509e-16
7.306894507e-16
7.395294077e-16
7.483672557e-16
7.572028508e-16
7.660360705e-16
7.748668152e-16
7.836949204e-16
4.125855088e-18
1.238226409e-17
2.064558878e-17
2.891565283e-17
3.719228143e-17
4.547530065e-17
5.376453738e-17
6.205982004e-17
7.036097778e-17
7.866784051e-17
8.698024014e-17
9.529800917e-17
1.0362098e-16
1.119489878e-16
1.202818671e-16
1.286194542e-16
1.369615871e-16
1.45308106e-16
1.536588443e-16
1.620136503e-16
1.703723579e-16
1.787348142e-16
1.871008623e-16
1.954703445e-16
2.038431068e-16
2.122189955e-16
2.205978575e-16
2.289795424e-16
2.373638945e-16
2.457507709e-16
2.541400156e-16
2.625314861e-16
2.709250315e-16
2.793205084e-16
2.877177713e-16
2.961166735e-16
3.045170693e-16
3.129188184e-16
3.213217822e-16
3.297258175e-16
3.381307828e-16
3.465365415e-16
3.549429571e-16
3.633498857e-16
3.717571984e-16
3.801647542e-16
3.885724254e-16
3.969800644e-16
4.053875581e-16
4.137947587e-16
4.222015417e-16
4.306077731e-16
4.390133232e-16
4.47418072e-16
4.558218812e-16
4.642246235e-16
4.726261927e-16
4.810264295e-16
4.894252444e-16
4.978224901e-16
5.062180517e-16
5.146118037e-16
5.230036323e-16
5.31393415e-16
5.397810174e-16
5.481663502e-16
5.565492606e-16
5.649296649e-16
5.733074188e-16
5.816824243e-16
5.900545625e-16
5.98423713e-16
6.067897685e-16
6.151526241e-16
6.23512145e-16
6.318682403e-16
6.402207901e-16
6.485696927e-16
6.569148392e-16
6.65256104e-16
6.735934028e-16
6.81926614e-16
6.902556424e-16
6.985803725e-16
7.069007001e-16
7.152165411e-16
7.235277627e-16
7.318342885e-16
7.40136012e-16
7.484328145e-16
4.011853925e-18
1.203657224e-17
2.00627057e-17
2.809012099e-17
3.611868514e-17
4.414826661e-17
5.217873459e-17
6.020995867e-17
6.824180985e-17
7.627415961e-17
8.430687996e-17
9.23398445e-17
1.00372927e-16
1.084060021e-16
1.164389453e-16
1.244716361e-16
1.325039458e-16
1.405357572e-16
1.485669459e-16
1.565973959e-16
1.64626983e-16
1.726555905e-16
1.806831007e-16
1.887093944e-16
1.967343573e-16
2.047578703e-16
2.127798255e-16
2.208000998e-16
2.28818584e-16
2.368351683e-16
2.448497328e-16
2.528621752e-16
2.608723796e-16
2.688802366e-16
2.768856405e-16
2.848884761e-16
2.928886404e-16
3.008860307e-16
3.088805376e-16
3.168720515e-16
3.248604686e-16
3.328456925e-16
3.408276142e-16
3.488061274e-16
3.567811373e-16
3.647525319e-16
3.727202349e-16
3.806841138e-16
3.886440955e-16
3.966000657e-16
4.045519368e-16
4.124996082e-16
4.204429793e-16
4.283819643e-16
4.363164579e-16
4.442463685e-16
4.521716048e-16
4.600920687e-16
4.68007679e-16
4.759183356e-16
4.838239434e-16
4.917244199e-16
4.996196683e-16
5.075096092e-16
5.153941409e-16
5.232731945e-16
5.311466503e-16
5.390144618e-16
5.46876514e-16
5.547327312e-16
5.625830305e-16
5.704273152e-16
5.782655177e-16
5.86097561e-16
5.939233405e-16
6.017427772e-16
6.095557968e-16
6.173623362e-16
6.251622838e-16
6.329555788e-16
6.40742137e-16
6.48521886e-16
6.562947388e-16
6.640606275e-16
6.71819456e-16
6.795711794e-16
6.87315702e-16
6.950529533e-16
7.027828491e-16
7.105053386e-16
3.892404505e-18
1.167421253e-17
1.945145308e-17
2.722403889e-17
3.499188359e-17
4.275490086e-17
5.051300499e-17
5.826611123e-17
6.601413576e-17
7.375699467e-17
8.149460478e-17
8.922688324e-17
9.695374822e-17
1.046751199e-16
1.123909155e-16
1.201010561e-16
1.278054619e-16
1.355040555e-16
1.431967546e-16
1.508834829e-16
1.585641661e-16
1.662387255e-16
1.739070817e-16
1.815691642e-16
1.892248951e-16
1.968741994e-16
2.045170068e-16
2.12153239e-16
2.197828276e-16
2.274056988e-16
2.350217771e-16
2.426310004e-16
2.502332846e-16
2.578285699e-16
2.654167877e-16
2.729978597e-16
2.805717268e-16
2.881383165e-16
2.956975561e-16
3.032493908e-16
3.1079374e-16
3.183305529e-16
3.258597498e-16
3.333812774e-16
3.40895061e-16
3.484010423e-16
3.558991599e-16
3.633893413e-16
3.708715398e-16
3.783456795e-16
3.858117045e-16
3.932695491e-16
4.007191564e-16
4.081604725e-16
4.155934265e-16
4.230179682e-16
4.304340266e-16
4.378415628e-16
4.452405008e-16
4.526307957e-16
4.600123785e-16
4.673852143e-16
4.747492192e-16
4.821043614e-16
4.894505671e-16
4.967878058e-16
5.041159925e-16
5.114350984e-16
5.187450677e-16
5.26045829e-16
5.33337353e-16
5.406195695e-16
5.478924425e-16
5.551559096e-16
5.624099342e-16
5.696544452e-16
5.768894045e-16
5.841147777e-16
5.913304813e-16
5.985364975e-16
6.057327711e-16
6.129192453e-16
6.200958825e-16
6.272626321e-16
6.344194376e-16
6.415662798e-16
6.487030915e-16
6.558298308e-16
6.629464611e-16
6.7005292e-16
3.768517535e-18
1.129841978e-17
1.881759289e-17
2.632599719e-17
3.382359321e-17
4.131034215e-17
4.878620534e-17
5.625114484e-17
6.370512214e-17
7.114809972e-17
7.85800412e-17
8.600090967e-17
9.341066796e-17
1.008092802e-16
1.081967112e-16
1.155729259e-16
1.229378855e-16
1.302915626e-16
1.376339165e-16
1.449649156e-16
1.52284527e-16
1.595927142e-16
1.668894479e-16
1.741746941e-16
1.814484222e-16
1.88710595e-16
1.959611882e-16
2.032001655e-16
2.104274952e-16
2.176431505e-16
2.248470949e-16
2.320393085e-16
2.392197518e-16
2.463884024e-16
2.535452273e-16
2.60690198e-16
2.678232859e-16
2.749444632e-16
2.820537056e-16
2.891509848e-16
2.962362676e-16
3.033095307e-16
3.103707503e-16
3.174198949e-16
3.244569427e-16
3.314818686e-16
3.384946433e-16
3.454952458e-16
3.524836498e-16
3.594598292e-16
3.664237602e-16
3.733754212e-16
3.803147841e-16
3.87241837e-16
3.941565373e-16
4.010588804e-16
4.079488357e-16
4.14826387e-16
4.216914974e-16
4.285441679e-16
4.353843494e-16
4.422120554e-16
4.490272249e-16
4.558298735e-16
4.626199612e-16
4.693974721e-16
4.761623864e-16
4.829146862e-16
4.896543529e-16
4.963813636e-16
5.030957044e-16
5.097973496e-16
5.164862981e-16
5.231625034e-16
5.298259814e-16
5.364766786e-16
5.431146074e-16
5.49739748e-16
5.563520627e-16
5.629515564e-16
5.695382022e-16
5.76111993e-16
5.826729042e-16
5.892209166e-16
5.957560266e-16
6.02278228e-16
6.087874784e-16
6.152837738e-16
6.217671195e-16
6.282374694e-16
3.641066961e-18
1.091170032e-17
1.816509058e-17
2.540124809e-17
3.262018353e-17
3.982190748e-17
4.700643065e-17
5.417376462e-17
6.132392003e-17
6.845690808e-17
7.557273965e-17
8.267142681e-17
8.975298077e-17
9.681741304e-17
1.038647359e-16
1.108949612e-16
1.179080993e-16
1.249041641e-16
1.318831671e-16
1.388451236e-16
1.457900376e-16
1.527179299e-16
1.59628811e-16
1.665226913e-16
1.73399584e-16
1.802595063e-16
1.871024682e-16
1.939284792e-16
2.007375552e-16
2.075297151e-16
2.143049629e-16
2.210633218e-16
2.278047977e-16
2.34529405e-16
2.412371598e-16
2.479280786e-16
2.546021692e-16
2.612594476e-16
2.678999333e-16
2.745236309e-16
2.811305646e-16
2.877207434e-16
2.942941855e-16
3.008508959e-16
3.073909025e-16
3.139142099e-16
3.204208411e-16
3.269108031e-16
3.333841166e-16
3.398407956e-16
3.462808523e-16
3.527043056e-16
3.591111668e-16
3.655014622e-16
3.718751918e-16
3.782323854e-16
3.845730447e-16
3.908971949e-16
3.972048474e-16
4.034960303e-16
4.097707363e-16
4.160290105e-16
4.222708401e-16
4.284962647e-16
4.347052853e-16
4.408979194e-16
4.470742015e-16
4.532341278e-16
4.593777103e-16
4.655049977e-16
4.7161597e-16
4.777106677e-16
4.837890996e-16
4.898512806e-16
4.958972386e-16
5.019269704e-16
5.07940515e-16
5.13937877e-16
5.199190767e-16
5.258841298e-16
5.318330561e-16
5.377658752e-16
5.436825947e-16
5.49583245e-16
5.554678431e-16
5.613363953e-16
5.671889267e-16
5.730254555e-16
5.788460011e-16
5.846505731e-16
3.510971104e-18
1.051705299e-17
1.749939004e-17
2.445804297e-17
3.139307216e-17
3.830453825e-17
4.519250133e-17
5.20570212e-17
5.88981582e-17
6.571597272e-17
7.251052378e-17
7.928187078e-17
8.6030074e-17
9.275519278e-17
9.945728507e-17
1.061364104e-16
1.127926285e-16
1.19425998e-16
1.260365765e-16
1.326244243e-16
1.391895974e-16
1.457321584e-16
1.522521592e-16
1.587496636e-16
1.65224724e-16
1.716774044e-16
1.781077575e-16
1.845158431e-16
1.909017154e-16
1.972654393e-16
2.036070668e-16
2.099266508e-16
2.162242547e-16
2.224999325e-16
2.287537397e-16
2.349857378e-16
2.411959756e-16
2.473845159e-16
2.535514113e-16
2.596967184e-16
2.658204947e-16
2.71922793e-16
2.780036733e-16
2.840631836e-16
2.9010139e-16
2.961183382e-16
3.021140873e-16
3.080886893e-16
3.140422038e-16
3.199746819e-16
3.258861838e-16
3.317767545e-16
3.376464539e-16
3.434953398e-16
3.493234565e-16
3.551308725e-16
3.60917624e-16
3.666837772e-16
3.724293861e-16
3.781544973e-16
3.838591667e-16
3.895434504e-16
3.952073927e-16
4.008510641e-16
4.064745037e-16
4.120777629e-16
4.176608993e-16
4.232239668e-16
4.287670139e-16
4.342901e-16
4.397932661e-16
4.452765762e-16
4.507400706e-16
4.561838098e-16
4.616078403e-16
4.670122214e-16
4.723970007e-16
4.777622182e-16
4.83107946e-16
4.884342184e-16
4.937410966e-16
4.990286191e-16
5.042968538e-16
5.095458366e-16
5.147756337e-16
5.199862666e-16
5.251778245e-16
5.303503286e-16
5.355038414e-16
5.406384031e-16
3.379648731e-18
1.011939355e-17
1.682988749e-17
2.35112343e-17
3.01635376e-17
3.678690028e-17
4.338142514e-17
4.994721501e-17
5.64843714e-17
6.299299612e-17
6.947319093e-17
7.592505658e-17
8.234869377e-17
8.874420186e-17
9.511168217e-17
1.014512347e-16
1.077629577e-16
1.140469507e-16
1.203033118e-16
1.265321391e-16
1.327335324e-16
1.389075872e-16
1.450543999e-16
1.511740705e-16
1.572666959e-16
1.633323716e-16
1.693711914e-16
1.753832509e-16
1.813686468e-16
1.873274761e-16
1.932598336e-16
1.991658059e-16
2.050454967e-16
2.108989936e-16
2.167263958e-16
2.22527791e-16
2.283032727e-16
2.340529331e-16
2.397768686e-16
2.454751699e-16
2.511479222e-16
2.567952216e-16
2.624171622e-16
2.680138292e-16
2.735853125e-16
2.79131705e-16
2.846530983e-16
2.901495754e-16
2.956212304e-16
3.010681502e-16
3.064904238e-16
3.118881347e-16
3.172613852e-16
3.226102485e-16
3.27934813e-16
3.33235171e-16
3.385114027e-16
3.437636037e-16
3.489918558e-16
3.541962387e-16
3.593768493e-16
3.645337665e-16
3.696670642e-16
3.747768537e-16
3.798631945e-16
3.849261801e-16
3.899658962e-16
3.949824225e-16
3.99975849e-16
4.04946246e-16
4.098937083e-16
4.148183099e-16
4.197201408e-16
4.245992709e-16
4.294557943e-16
4.342897906e-16
4.3910133e-16
4.43890498e-16
4.486573885e-16
4.534020578e-16
4.581246103e-16
4.628251032e-16
4.675036337e-16
4.721602637e-16
4.767950936e-16
4.814081744e-16
4.859996091e-16
4.90569465e-16
4.951178249e-16
4.996447535e-16
3.250863968e-18
9.733060072e-18
1.618603929e-17
2.260990924e-17
2.900477698e-17
3.537074932e-17
4.170793275e-17
4.80164332e-17
5.429635658e-17
6.054780772e-17
6.677089159e-17
7.296571309e-17
7.913237636e-17
8.527098509e-17
9.138164273e-17
9.746445189e-17
1.035195175e-16
1.095469392e-16
1.155468184e-16
1.215192608e-16
1.274643633e-16
1.333822295e-16
1.392729616e-16
1.451366538e-16
1.50973412e-16
1.567833322e-16
1.625665154e-16
1.683230588e-16
1.740530641e-16
1.797566248e-16
1.854338433e-16
1.910848114e-16
1.967096322e-16
2.023083969e-16
2.0788121e-16
2.134281587e-16
2.189493433e-16
2.244448571e-16
2.299148007e-16
2.353592621e-16
2.407783353e-16
2.461721216e-16
2.515407101e-16
2.568841908e-16
2.6220266e-16
2.674962164e-16
2.727649437e-16
2.780089389e-16
2.832282892e-16
2.8842309e-16
2.935934332e-16
2.987394079e-16
3.038611045e-16
3.089586109e-16
3.140320161e-16
3.190814196e-16
3.241069032e-16
3.29108554e-16
3.340864634e-16
3.390407169e-16
3.439714075e-16
3.488786245e-16
3.537624394e-16
3.586229591e-16
3.634602616e-16
3.682744324e-16
3.730655583e-16
3.778337292e-16
3.825790247e-16
3.873015283e-16
3.920013367e-16
3.966785264e-16
4.013331783e-16
4.059653794e-16
4.105752198e-16
4.151627811e-16
4.197281311e-16
4.242713699e-16
4.287925781e-16
4.332918272e-16
4.377692214e-16
4.422248144e-16
4.466587009e-16
4.510709635e-16
4.554616841e-16
4.598309354e-16
4.641788119e-16
4.685053792e-16
4.728107194e-16
4.770949225e-16
3.126381263e-18
9.360301612e-18
1.556603687e-17
2.174369097e-17
2.789336768e-17
3.401517031e-17
4.010920198e-17
4.617556484e-17
5.221436117e-17
5.822569336e-17
6.420966262e-17
7.016636961e-17
7.609591576e-17
8.199840148e-17
8.787392662e-17
9.372259046e-17
9.954449433e-17
1.053397336e-16
1.1110841e-16
1.168506227e-16
1.225664642e-16
1.282560388e-16
1.339194407e-16
1.39556766e-16
1.451681106e-16
1.50753574e-16
1.563132533e-16
1.618472395e-16
1.673556293e-16
1.728385156e-16
1.782960007e-16
1.837281716e-16