/*--------------------------------*- C++ -*----------------------------------*\
| =========                 |                                                 |
| \\      /  F ield         | OpenFOAM: The Open Source CFD Toolbox           |
|  \\    /   O peration     | Version:  2206                                  |
|   \\  /    A nd           | Website:  www.openfoam.com                      |
|    \\/     M anipulation  |                                                 |
\*---------------------------------------------------------------------------*/
FoamFile
{
    version     2.0;
    format      ascii;
    arch        "LSB;label=32;scalar=64";
    class       volScalarField;
    location    "0.01";
    object      T;
}
// * * * * * * * * * * * * * * * * * * * * * * * * * * * * * * * * * * * * * //

dimensions      [0 0 0 1 0 0 0];

internalField   nonuniform List<scalar> 
18900
(
554.04475
554.0461243
554.046873
554.0491459
554.0518172
554.0551366
554.0597513
554.0635366
554.0686359
554.0745983
554.0813356
554.0883935
554.0957811
554.1042126
554.112727
554.1217944
554.1314724
554.1418144
554.152431
554.1630968
554.1745793
554.1863453
554.1983767
554.2109878
554.2238967
554.2366568
554.2498333
554.2634324
554.2770673
554.290986
554.3049669
554.3189506
554.3332966
554.34769
554.3622086
554.3765048
554.3909905
554.4057279
554.4200823
554.4345492
554.4488355
554.463127
554.4773641
554.4912823
554.5052726
554.5191218
554.5328758
554.5462601
554.5596755
554.5726971
554.5855453
554.598286
554.6107765
554.622951
554.6347907
554.6465789
554.6579252
554.6691642
554.6800322
554.6905682
554.7007999
554.7108561
554.7205442
554.7299122
554.7389468
554.7477021
554.7561053
554.7641882
554.772094
554.7794524
554.7866558
554.7934634
554.7999865
554.806172
554.8120023
554.8175616
554.8227397
554.8275807
554.8320899
554.8362069
554.840067
554.8435541
554.8465938
554.8493016
554.8516097
554.8536137
554.8551705
554.8563714
554.8571909
554.8575662
554.0428518
554.0452222
554.0459425
554.0482937
554.0505869
554.0545632
554.0590201
554.0634732
554.0677549
554.0735277
554.0806908
554.0877215
554.0951068
554.1032647
554.1124171
554.1214166
554.130817
554.1416101
554.1523179
554.1627055
554.1744178
554.1866575
554.198265
554.2110084
554.2238554
554.2366904
554.2498066
554.2637854
554.2776511
554.2912829
554.3051499
554.3194762
554.3339391
554.3482519
554.3631104
554.3772099
554.3919931
554.4065431
554.4207779
554.4353544
554.4498578
554.4642698
554.4784119
554.492375
554.5063765
554.520393
554.534308
554.5476494
554.5609042
554.5741689
554.5872184
554.5998069
554.6123662
554.6247047
554.6365683
554.6483868
554.6598788
554.6712477
554.6820769
554.6926906
554.7030016
554.7131077
554.7228031
554.732283
554.7415135
554.7503521
554.7587821
554.7668917
554.7746888
554.7823872
554.7895849
554.7965075
554.8031524
554.8094536
554.8152431
554.8209429
554.8262924
554.8312564
554.8359693
554.8402125
554.8442033
554.8477692
554.850956
554.8537918
554.8562896
554.8583759
554.8600851
554.8613121
554.8622875
554.8626655
554.0388495
554.0421015
554.0425459
554.0446176
554.0457903
554.0508298
554.0548546
554.0609352
554.0645138
554.0704204
554.0769914
554.0840995
554.0923746
554.099974
554.1091113
554.1183479
554.1277027
554.1386354
554.1494259
554.1597645
554.1715468
554.1841775
554.1956072
554.2088305
554.2214429
554.2345024
554.2474287
554.2617526
554.275857
554.2893704
554.3032625
554.3177209
554.3328024
554.3466273
554.3615051
554.3759095
554.3912211
554.4055644
554.419651
554.4343782
554.4494437
554.463889
554.478088
554.4919461
554.5064647
554.5205145
554.5342855
554.5476282
554.5611967
554.5745538
554.5877226
554.6002604
554.6129022
554.6257194
554.6374938
554.6494722
554.6609933
554.6725726
554.6832955
554.694071
554.7046246
554.7148833
554.7245714
554.7343667
554.7436558
554.7528066
554.761157
554.7695173
554.777376
554.7853185
554.7926677
554.799745
554.8065219
554.8129865
554.8190125
554.8248007
554.8304194
554.8356285
554.8404906
554.8450185
554.849252
554.8529509
554.8564411
554.8594198
554.8622481
554.864605
554.8665652
554.8679612
554.8691255
554.8695847
554.0331544
554.0349621
554.0347727
554.0381215
554.0389735
554.0440181
554.0488087
554.0543984
554.0582326
554.0647501
554.0707684
554.0776989
554.0867615
554.0932254
554.1029007
554.112607
554.1219468
554.1332205
554.144108
554.1550478
554.1668431
554.1784277
554.1912228
554.2040275
554.2166132
554.2303328
554.2434754
554.2577762
554.2715679
554.2850834
554.2994069
554.3141234
554.3291775
554.3435346
554.3580673
554.3729853
554.3879987
554.4030337
554.4168915
554.4319494
554.447104
554.4619933
554.476296
554.4900416
554.5049904
554.5192809
554.5328151
554.5464463
554.5604161
554.5738175
554.5870014
554.599924
554.6125479
554.6256417
554.6373681
554.6496684
554.6614667
554.6733297
554.6839048
554.6946556
554.7055384
554.7160951
554.7258521
554.7359304
554.7454691
554.7546776
554.7633403
554.7720289
554.780052
554.7879814
554.7957456
554.8028408
554.8099214
554.8165503
554.8229744
554.8289076
554.834852
554.8402632
554.8454119
554.8502936
554.8548466
554.8588132
554.862671
554.8660531
554.8692548
554.8719986
554.8743003
554.8762164
554.8775726
554.8782645
554.0236954
554.025514
554.0262507
554.0297012
554.0305349
554.0347598
554.039797
554.0449083
554.0493538
554.0563536
554.0618517
554.0690556
554.0782025
554.0849932
554.0945272
554.1045241
554.1141415
554.1254362
554.1356349
554.1477405
554.1600172
554.1702494
554.1839979
554.196218
554.2093319
554.2232054
554.2367905
554.2510522
554.2652397
554.2787901
554.2931626
554.3085823
554.3233123
554.3383786
554.3531883
554.368257
554.3830199
554.398425
554.4125269
554.4276584
554.442777
554.4580762
554.4727717
554.4871072
554.5020445
554.5160288
554.5300415
554.5440637
554.5582066
554.5719574
554.5851376
554.5981887
554.6114279
554.6243873
554.636375
554.648936
554.6610096
554.6730592
554.683952
554.6948244
554.7056664
554.7165596
554.7266149
554.7368615
554.7467874
554.756175
554.7652296
554.7740494
554.7823751
554.7905546
554.798533
554.8059304
554.8132182
554.8201981
554.8269256
554.8332466
554.8393829
554.845109
554.850767
554.8559736
554.8608831
554.8652752
554.8695711
554.8735621
554.8772057
554.8805228
554.8833531
554.8859872
554.8878516
554.8891057
554.0124429
554.0150167
554.0154687
554.0190541
554.0192489
554.0241399
554.0278302
554.0339539
554.0381817
554.0445175
554.0495916
554.0585051
554.0668188
554.074532
554.0831818
554.0936575
554.1031598
554.1147249
554.1245353
554.1370787
554.1501756
554.1600367
554.1740389
554.1860378
554.2000071
554.2138332
554.2274647
554.2416712
554.2561108
554.2699479
554.2847389
554.300138
554.3155432
554.3307083
554.3460983
554.36135
554.37643
554.3916682
554.4062213
554.4216421
554.4370667
554.4525953
554.4677318
554.4822148
554.4976923
554.5116326
554.5260693
554.5401507
554.5545095
554.5685372
554.582368
554.5954806
554.6091133
554.6221075
554.6343921
554.64719
554.6595368
554.6713946
554.682997
554.6941177
554.7052481
554.7163206
554.7267875
554.7373807
554.7475135
554.7572121
554.7666131
554.7756181
554.784373
554.793042
554.8011952
554.8089618
554.8164766
554.8237714
554.83086
554.8375593
554.8440483
554.8501873
554.8562908
554.8619457
554.8672704
554.8722766
554.8771478
554.8816426
554.8859327
554.8900038
554.8935882
554.8975778
554.9000411
554.9040919
554.0028376
554.0026974
554.0014647
554.0049351
554.0048107
554.0098926
554.0135945
554.0195368
554.0239172
554.029954
554.0349406
554.0440834
554.0529313
554.0607283
554.0697414
554.0796431
554.0893441
554.1012083
554.1107287
554.1230733
554.1371477
554.1475467
554.1606562
554.1738354
554.1878764
554.2016025
554.2155304
554.2300719
554.2448076
554.2583999
554.2734762
554.2892936
554.3049005
554.3205103
554.3364839
554.3518183
554.3668263
554.3826948
554.3976716
554.4133076
554.4294547
554.4449877
554.4606112
554.4752484
554.4910614
554.5050959
554.5200608
554.534304
554.5490893
554.5635642
554.5773931
554.5909319
554.6050823
554.6180633
554.6308449
554.6438979
554.6566683
554.6685818
554.6804951
554.6921358
554.7038443
554.7150305
554.7259171
554.7369824
554.7472744
554.7571917
554.7669189
554.7763853
554.7856693
554.7947211
554.8030679
554.8111963
554.8191733
554.8269002
554.8342496
554.8414191
554.8483352
554.8549465
554.861569
554.8676333
554.8734426
554.8790205
554.884504
554.8897466
554.8945561
554.8995601
554.9038504
554.9095434
554.9123761
554.9205117
553.9861779
553.9852148
553.981906
553.9862197
553.9874323
553.9925571
553.9958891
554.0014178
554.0068614
554.0116175
554.0174281
554.0265368
554.0359018
554.0436432
554.0518423
554.0621745
554.0723407
554.0846834
554.0939776
554.1059174
554.1199448
554.1316079
554.1450257
554.1583317
554.1720969
554.1860385
554.2008012
554.215845
554.2305691
554.243847
554.2593123
554.2760226
554.2914658
554.3075465
554.3238118
554.3394308
554.354831
554.3709101
554.3864028
554.4022094
554.4188248
554.4347102
554.4510253
554.4655217
554.4816037
554.4959244
554.5114584
554.5262833
554.5413056
554.5562374
554.5701412
554.58433
554.5988741
554.6121324
554.6252443
554.6385073
554.6514599
554.6640669
554.6764842
554.6886215
554.7004786
554.7117718
554.7232118
554.7348786
554.7455052
554.7557529
554.7656453
554.7756974
554.7852771
554.7947836
554.8036986
554.8121943
554.8205301
554.8288518
554.8365813
554.8441697
554.8515505
554.8587035
554.8657706
554.8723125
554.8786666
554.8847726
554.8907493
554.8966166
554.9020156
554.9078781
554.9123667
554.9193715
554.9221997
554.9323865
553.9626518
553.9630259
553.9617049
553.9628596
553.9655845
553.9716997
553.9737508
553.9808404
553.9876845
553.990231
553.9957544
554.0056865
554.0152664
554.0227806
554.0308982
554.0414681
554.0519014
554.0647726
554.0749092
554.085741
554.0991688
554.1121352
554.1257495
554.1396055
554.1535574
554.1675673
554.1829495
554.1981808
554.2131672
554.2268269
554.2422416
554.2591165
554.2751607
554.29163
554.3076739
554.3239656
554.3398962
554.3560387
554.372053
554.3886558
554.4053961
554.4216239
554.4377523
554.4525136
554.4694766
554.4840384
554.4999385
554.5158027
554.5310174
554.5462546
554.5608312
554.5750656
554.5900859
554.6039229
554.6175531
554.6311027
554.644298
554.6573725
554.6703179
554.6829003
554.694974
554.7067258
554.7185616
554.730417
554.7414869
554.7524415
554.7626552
554.7731125
554.7830723
554.7931078
554.8025761
554.8116225
554.8203442
554.8289982
554.8374223
554.8454666
554.8533152
554.8610103
554.8683291
554.8754592
554.8823645
554.8889874
554.8954446
554.9018195
554.9075785
554.9141645
554.9186321
554.9264289
554.9291271
554.9401915
553.9352579
553.938099
553.9403877
553.9374609
553.9403921
553.9480243
553.949308
553.9568515
553.9651153
553.966289
553.9713249
553.9812425
553.9906171
553.9986058
554.0074599
554.0179052
554.0285417
554.0416007
554.0522275
554.0620578
554.0761104
554.0887845
554.1032702
554.1180618
554.1310639
554.146106
554.1617702
554.1768223
554.1927387
554.2066676
554.2221465
554.2390736
554.255467
554.2724766
554.2887027
554.3054059
554.3216743
554.3383632
554.3548328
554.3721357
554.389063
554.4054094
554.4215618
554.4365308
554.4544468
554.4696269
554.4860034
554.5024786
554.5178467
554.5337471
554.5486688
554.5633414
554.5787076
554.5930551
554.6072852
554.6211166
554.6351255
554.6484376
554.661706
554.6747609
554.6872923
554.6993456
554.7115033
554.7238907
554.7353605
554.746877
554.757759
554.7686356
554.7789764
554.789376
554.7992797
554.8091857
554.8183942
554.8274317
554.8363254
554.8449153
554.8533612
554.8616246
554.8692885
554.8768849
554.8842192
554.8914358
554.8983461
554.9052308
554.9111926
554.91847
554.922948
554.93122
554.933881
554.946212
553.9074952
553.9144994
553.9166165
553.9096607
553.912099
553.922321
553.922557
553.9282207
553.9397602
553.9392183
553.9444981
553.9539194
553.9625478
553.9718003
553.980447
553.9913725
554.0019827
554.0154515
554.0259838
554.036749
554.0504656
554.06229
554.0770542
554.092245
554.1057639
554.120451
554.1375337
554.1522158
554.1689556
554.1833743
554.1991958
554.2158847
554.2327983
554.2495139
554.2664594
554.2835899
554.300445
554.3173636
554.334864
554.3523913
554.3698881
554.3860575
554.4025559
554.4180208
554.4364773
554.4520527
554.4691603
554.4861897
554.5022915
554.5185082
554.5338138
554.549134
554.5645401
554.5796478
554.5941832
554.6086286
554.6230216
554.6370328
554.650673
554.6640449
554.6771849
554.6897405
554.7022144
554.7149171
554.727087
554.7388418
554.7505017
554.7621161
554.7729175
554.7836391
554.7941588
554.8045771
554.8144946
554.8238958
554.8333459
554.8424266
554.8513823
554.8601005
554.8684014
554.8764652
554.8842745
554.8919904
554.8993537
554.9068242
554.9131061
554.9209971
554.9256972
554.9343126
554.9371639
554.9510379
553.8799963
553.8835121
553.8899404
553.8797042
553.8815656
553.8927049
553.8929301
553.8957417
553.9101078
553.9099163
553.9154699
553.9224822
553.9314979
553.9432647
553.9492684
553.9613981
553.973721
553.9859954
553.9961036
554.0074623
554.0211324
554.0328641
554.0471679
554.0633696
554.0771037
554.0918817
554.1088594
554.1250802
554.1411998
554.1565793
554.1721093
554.1895592
554.2068183
554.2240319
554.2409609
554.2581265
554.2755175
554.2933135
554.3108875
554.3287609
554.3468766
554.3637133
554.3807284
554.3970981
554.4155078
554.4320204
554.4496946
554.4667753
554.4834386
554.4999252
554.5160242
554.5320725
554.5478663
554.5635992
554.5783441
554.5933546
554.6084424
554.6226193
554.6369022
554.6507814
554.6645121
554.677804
554.6907352
554.7037936
554.7166311
554.7286439
554.7409156
554.7530581
554.7645321
554.7755947
554.7868151
554.7976854
554.8082469
554.8182157
554.8280723
554.8377909
554.8472522
554.8564932
554.8653809
554.8740603
554.8824123
554.8907014
554.8984646
554.9066275
554.9131921
554.921768
554.9267323
554.9359834
554.9389961
554.9549849
553.8539108
553.8501744
553.8609367
553.8455403
553.848151
553.8581974
553.8610958
553.8624279
553.8768164
553.8776691
553.8837212
553.8872298
553.8977677
553.9110507
553.9159424
553.928063
553.9411282
553.9522476
553.9624638
553.975008
553.9881936
554.0004806
554.0147705
554.0314875
554.0457081
554.0604959
554.0765255
554.0936508
554.1101025
554.1265202
554.1418688
554.1602321
554.1775625
554.1948622
554.2121685
554.2295511
554.2474809
554.2657698
554.2840378
554.3017838
554.3206062
554.3383342
554.3558389
554.3732423
554.3914857
554.4094176
554.4269736
554.4446091
554.4614492
554.478416
554.4951866
554.5113758
554.5281027
554.5443979
554.5599031
554.5754948
554.5910681
554.6059422
554.6206706
554.6350304
554.6493092
554.6630666
554.6766394
554.6903894
554.7036615
554.7163003
554.7289451
554.7414763
554.753618
554.7652659
554.7769023
554.7884115
554.799469
554.810074
554.8204212
554.8308115
554.8408554
554.8506089
554.8600171
554.8693107
554.878247
554.887243
554.8953555
554.9044656
554.9113059
554.920644
554.9259885
554.9359809
554.9393363
554.9577282
553.8166427
553.8142898
553.8262817
553.8101564
553.8127547
553.8179825
553.8245515
553.8259969
553.8383736
553.8409652
553.8473299
553.8480728
553.8600638
553.8732562
553.8793848
553.8903887
553.9040061
553.9142423
553.9250763
553.9388041
553.9510932
553.963459
553.9786085
553.9955719
554.0112129
554.0255724
554.0410953
554.0579801
554.0757242
554.0931014
554.108952
554.1268633
554.1448001
554.1624965
554.1798493
554.1982385
554.2159052
554.2346578
554.2538481
554.2714837
554.2910316
554.3097466
554.3277616
554.3464115
554.3642906
554.3832427
554.401512
554.4196868
554.4368673
554.4543767
554.4712605
554.487917
554.505215
554.5220642
554.5384256
554.5548388
554.5705091
554.586319
554.6019418
554.6167817
554.6314438
554.6456385
554.6599986
554.6740757
554.6878491
554.700974
554.7143795
554.7272543
554.7400432
554.7525376
554.7644552
554.7763926
554.7880904
554.7992159
554.8102908
554.8211126
554.8317643
554.8421405
554.8521699
554.8621759
554.8715391
554.8813702
554.8898749
554.8999162
554.9072089
554.9175771
554.9231756
554.9343389
554.9385026
554.9587245
553.7620889
553.776147
553.7861696
553.7714141
553.7755479
553.7755778
553.7828737
553.7841646
553.7966747
553.7994415
553.8063172
553.8068135
553.8187949
553.8324367
553.8389712
553.849419
553.8632419
553.8726507
553.8838184
553.8989037
553.9099953
553.9236238
553.9381939
553.9562171
553.9722019
553.9868378
554.0027369
554.0189882
554.037575
554.0551886
554.0722846
554.0902188
554.1076409
554.1266603
554.1445272
554.1638777
554.1819098
554.2011374
554.219841
554.2384429
554.2581896
554.2773176
554.2959651
554.3149199
554.3343397
554.3538301
554.3725952
554.3911734
554.4092255
554.427084
554.4442012
554.4616753
554.4795009
554.4968372
554.5136784
554.5311587
554.5473943
554.563566
554.5797214
554.5949012
554.6107247
554.6252111
554.6404558
554.6551161
554.6693001
554.682897
554.6968347
554.7103104
554.7237127
554.7367915
554.7493611
554.7618394
554.7739945
554.7857208
554.7975242
554.8087776
554.8198588
554.8308517
554.8414272
554.8522204
554.8619242
554.8729335
554.8816282
554.8927558
554.900297
554.9120291
554.9179065
554.9305177
554.9367058
554.9573455
553.7098529
553.7379915
553.7399821
553.7282808
553.7309181
553.7275356
553.735375
553.739687
553.7493084
553.7543451
553.7597978
553.7624709
553.7736606
553.7871665
553.7951859
553.8058192
553.8193179
553.8279238
553.8401572
553.8542595
553.8653113
553.8804439
553.894722
553.912374
553.9292645
553.9440984
553.9605878
553.976612
553.9951399
554.0139162
554.0315846
554.049744
554.0675193
554.0868225
554.1055851
554.1254974
554.1447052
554.1634119
554.1825378
554.2021141
554.2221164
554.241818
554.2612159
554.2807316
554.3007501
554.3207316
554.3400678
554.3588424
554.3775986
554.3961221
554.4144197
554.4324313
554.450878
554.4688485
554.486175
554.5040027
554.5206796
554.5377247
554.5542936
554.5703539
554.5865804
554.6021461
554.6177709
554.6330008
554.6477822
554.6620974
554.6764402
554.6907393
554.7044773
554.7180755
554.7314151
554.7444301
554.7571014
554.7692945
554.7816166
554.7935555
554.8052711
554.8167889
554.8278374
554.8392835
554.8494401
554.8611206
554.870344
554.8825608
554.8904726
554.9034117
554.9098863
554.9244988
554.9328766
554.9533092
553.6547314
553.6893849
553.6843898
553.6807066
553.6804681
553.6762458
553.6842499
553.6896431
553.6965847
553.7050511
553.7085312
553.7137969
553.7244647
553.7381399
553.7465052
553.7565716
553.7708481
553.7805428
553.7927656
553.8063436
553.8174561
553.8326573
553.8471715
553.8656369
553.8819618
553.8975849
553.9140759
553.9308227
553.9499148
553.969573
553.9871405
554.0057473
554.0244148
554.0439819
554.0639483
554.0832264
554.1035079
554.1225335
554.1420246
554.1625175
554.1832141
554.2031164
554.2233815
554.2440099
554.2640289
554.284412
554.3040063
554.3234013
554.3427031
554.3615788
554.381325
554.4003867
554.4193078
554.4378024
554.4557556
554.4734676
554.4906731
554.5087179
554.5261431
554.5427439
554.5597743
554.5761817
554.5924404
554.6081531
554.6234551
554.6386475
554.6534081
554.6683936
554.6826699
554.696646
554.7105946
554.7239539
554.7372915
554.7502846
554.7629085
554.775263
554.7875887
554.7996289
554.811247
554.8230739
554.833944
554.8459576
554.8559251
554.8685014
554.8775382
554.8908062
554.8987402
554.9159829
554.9260955
554.9453516
553.6026527
553.6407154
553.6234028
553.6263196
553.62712
553.6240842
553.6318648
553.636439
553.6427729
553.6500874
553.6542578
553.6622806
553.6726317
553.6855077
553.6934456
553.7039099
553.7188228
553.7283368
553.7406046
553.7546844
553.7679834
553.7805676
553.796033
553.814783
553.8308787
553.8462384
553.8644752
553.8816337
553.9011378
553.9200548
553.9392403
553.9587948
553.9781798
553.998317
554.0182823
554.0379567
554.0581142
554.0773489
554.0980906
554.1192075
554.1411867
554.1615316
554.1822056
554.2038164
554.2244023
554.2446402
554.2645809
554.2845196
554.3044281
554.3240367
554.3446961
554.3643275
554.3843691
554.40345
554.4220434
554.4404152
554.4580666
554.4765989
554.4946907
554.5122813
554.5297246
554.5468835
554.5639028
554.5801447
554.5962406
554.6122856
554.6278258
554.6431555
554.6579872
554.6726059
554.6868809
554.7009051
554.7146543
554.7281284
554.7414013
554.7541994
554.7668855
554.7795804
554.791601
554.8036956
554.8151952
554.827346
554.8383728
554.8505089
554.8611036
554.8736656
554.884634
554.9040453
554.9147403
554.9310249
553.555024
553.5879275
553.5575233
553.5660644
553.5706011
553.5667024
553.5774716
553.5798026
553.5843768
553.5906585
553.5957217
553.6046478
553.6181646
553.6280671
553.6368345
553.6479824
553.661829
553.6726466
553.6838409
553.6975129
553.7124884
553.7259259
553.741248
553.7597031
553.7774838
553.7918003
553.810491
553.8289923
553.8483453
553.8668785
553.8880097
553.9068563
553.9275521
553.9486136
553.9689902
553.9889531
554.0091046
554.0288143
554.050546
554.072594
554.0949284
554.1163082
554.1375669
554.1597968
554.1808293
554.2013997
554.2217924
554.2419046
554.2626913
554.2837491
554.3046272
554.3249571
554.3457404
554.3655045
554.3845719
554.4040505
554.4227316
554.4414124
554.4603481
554.4790132
554.4967608
554.5142883
554.5320338
554.5495953
554.5661141
554.5829785
554.5989299
554.6148368
554.6303639
554.6455936
554.6604384
554.6747891
554.6890043
554.7031137
554.7166686
554.7300258
554.7431967
554.7563715
554.7689098
554.781354
554.7934635
554.8057614
554.8174786
554.8295938
554.8405049
554.8531997
554.8693762
554.8874783
554.8968932
554.9047427
553.5006125
553.5297675
553.4909826
553.5027666
553.5091862
553.5052487
553.5159823
553.5195371
553.5222128
553.52806
553.5333649
553.5421943
553.55735
553.5660448
553.5747321
553.5877637
553.5999014
553.6107515
553.6215823
553.6364712
553.6529114
553.6672956
553.6826217
553.7015797
553.7188509
553.7348701
553.7537698
553.7720015
553.7914703
553.811265
553.8320123
553.8515261
553.8717624
553.8940717
553.9149621
553.9355012
553.9555404
553.9772561
553.9997222
554.0222222
554.0451068
554.0672354
554.0894249
554.1116707
554.133463
554.1544354
554.1754553
554.196582
554.2178061
554.2402938
554.2613209
554.2822107
554.3039178
554.3242282
554.3437
554.3640828
554.383898
554.4034652
554.4230388
554.4426244
554.461085
554.4793697
554.4975227
554.5160923
554.5334799
554.5509634
554.5673384
554.5838212
554.6001488
554.6159831
554.6314617
554.6463645
554.6610061
554.6754836
554.6896675
554.7035883
554.7171486
554.7308038
554.743893
554.756789
554.7694014
554.7821788
554.7942503
554.8062941
554.8183208
554.8378823
554.8548201
554.8669564
554.8775789
554.8738196
553.4265243
553.4624734
553.4232428
553.4356561
553.4448198
553.4402222
553.4464713
553.4558632
553.455856
553.4600326
553.4668477
553.4773492
553.4922579
553.5007112
553.5079885
553.5218106
553.5343795
553.5449595
553.555156
553.5713592
553.588451
553.6045001
553.6191488
553.6384751
553.6544573
553.6740731
553.6931178
553.7111623
553.730598
553.7506698
553.7710437
553.7911371
553.8121477
553.834929
553.8568225
553.8773708
553.8992439
553.9216816
553.94471
553.9680568
553.9911098
554.0143171
554.0371108
554.0595964
554.0820212
554.1035272
554.1250769
554.1476559
554.1698214
554.1926832
554.2146951
554.2367512
554.2584785
554.2797999
554.3006849
554.321483
554.3421906
554.3624493
554.3829688
554.4030711
554.4227687
554.4416055
554.4606044
554.4795325
554.497968
554.5160693
554.5334713
554.5506629
554.5675757
554.5840972
554.6001633
554.6158421
554.6310362
554.6458391
554.6605379
554.6748673
554.6891769
554.7030671
554.7167446
554.7303872
554.7433512
554.7565733
554.7683806
554.7838788
554.8035144
554.822472
554.8349804
554.8457447
554.8578581
554.8442962
553.3540092
553.3911812
553.3549379
553.3615721
553.3779244
553.3736938
553.3748415
553.3868469
553.3852883
553.38838
553.3943182
553.4071938
553.4198297
553.4289014
553.4374192
553.4510104
553.4646111
553.4745889
553.4845752
553.5012138
553.5175458
553.5355584
553.5508033
553.5701075
553.5851646
553.6072453
553.6268863
553.6458058
553.6649956
553.6854968
553.7052706
553.726582
553.7479294
553.7708265
553.7932579
553.8145918
553.8380577
553.861516
553.8850981
553.9096586
553.9331753
553.9566979
553.9801148
554.0032985
554.0267654
554.0486497
554.0712246
554.0944019
554.1182775
554.1419768
554.1644385
554.1875916
554.2103229
554.2319662
554.2543839
554.2760681
554.2973506
554.3185796
554.3401903
554.3609626
554.3815219
554.4013447
554.4207585
554.4403132
554.459776
554.4785123
554.496739
554.5146443
554.5323191
554.5493582
554.5662448
554.5825064
554.5982851
554.6136855
554.6289221
554.6441361
554.6588386
554.6735014
554.687595
554.7019318
554.7152983
554.7285031
554.7459206
554.7681066
554.7864425
554.8013788
554.8135761
554.824121
554.8392774
554.8152134
553.2879528
553.3119475
553.2810395
553.2847517
553.3036424
553.2990784
553.2988874
553.3099541
553.3074248
553.3160892
553.317419
553.330313
553.3415446
553.3512264
553.3621642
553.3754964
553.3875766
553.3986993
553.4097458
553.4261521
553.4431315
553.4603761
553.4786368
553.4960597
553.5129658
553.5337676
553.5552303
553.5738909
553.5932614
553.6149461
553.6358348
553.6571207
553.6792082
553.7027072
553.7252487
553.7478074
553.7722228
553.7960526
553.8210484
553.8459678
553.8709158
553.8945677
553.9187967
553.9431379
553.9671513
553.9901884
554.0138061
554.0378911
554.06301
554.0871836
554.1107475
554.1352534
554.1594682
554.1820001
554.2048642
554.2270956
554.2491347
554.2713133
554.2940737
554.3156496
554.3366259
554.3576365
554.3781286
554.3981709
554.4188234
554.4380549
554.4571928
554.4755364
554.4934453
554.5116688
554.5288978
554.5457816
554.5627262
554.5793321
554.5948842
554.610827
554.6261321
554.6416515
554.6565931
554.6713604
554.6851381
554.7048546
554.7280007
554.7478037
554.7641163
554.7785507
554.7911026
554.8019102
554.8186487
554.7860838
553.2190481
553.2214176
553.2002987
553.1979254
553.2204437
553.2172643
553.2129762
553.2267856
553.2208404
553.2337439
553.2364685
553.2484462
553.2580561
553.2685956
553.2821719
553.2947674
553.3064769
553.3155057
553.3286732
553.3452413
553.3635008
553.3798512
553.4003588
553.4172824
553.4361587
553.4550445
553.4777524
553.4970536
553.5177489
553.5404085
553.5618284
553.5817069
553.6067627
553.6302637
553.652452
553.6765164
553.7017352
553.7268705
553.7524763
553.7771065
553.8031321
553.8284697
553.8534646
553.8782463
553.9033544
553.9277058
553.9523991
553.9780987
554.0036736
554.0290422
554.0531027
554.0784524
554.103241
554.1274698
554.1515654
554.1744302
554.1971957
554.2203415
554.2441138
554.2665062
554.2879112
554.3102372
554.3321556
554.3530174
554.373422
554.3941209
554.4137498
554.4330271
554.4516627
554.4706601
554.4894152
554.5067079
554.5243747
554.5414946
554.5582112
554.5751238
554.5913734
554.6071315
554.6231206
554.6384124
554.6592125
554.6858425
554.7063931
554.7242537
554.7407752
554.7538533
554.7673549
554.7797339
554.7968322
554.7559636
553.1561647
553.13322
553.1163976
553.1043523
553.1309259
553.126747
553.1264627
553.1396658
553.1313631
553.1436873
553.1482677
553.161709
553.1708624
553.181109
553.1963764
553.208404
553.2178187
553.2280707
553.2413552
553.2599734
553.2786654
553.2941826
553.3130231
553.3318892
553.3516684
553.3723047
553.3945183
553.4137604
553.4358649
553.4582356
553.4802432
553.5014505
553.5277956
553.5529011
553.576025
553.6008936
553.626242
553.6517689
553.678577
553.7044973
553.7308653
553.7572515
553.7826251
553.8097288
553.835019
553.8609758
553.8862588
553.9133871
553.9400769
553.9661628
553.9915104
554.0175181
554.0430065
554.0675337
554.0927153
554.1174441
554.141928
554.166305
554.1902773
554.2138619
554.236681
554.2594329
554.2822396
554.3039316
554.3250166
554.3459807
554.3670054
554.3873704
554.4068719
554.4268975
554.4462303
554.464721
554.4831963
554.5011216
554.5187398
554.5364675
554.5536944
554.5704749
554.5867085
554.6086124
554.6370156
554.6615721
554.6807617
554.6983176
554.7154186
554.7271276
554.7430746
554.7558623
554.7731951
554.7245469
553.0681073
553.0382435
553.0237721
553.0083988
553.0347394
553.0301887
553.0333762
553.0461235
553.0375331
553.0479529
553.0540476
553.0666025
553.0759169
553.0866021
553.1028281
553.1148336
553.1224485
553.1344245
553.1487861
553.1678586
553.186315
553.2038453
553.2194901
553.2418103
553.2615975
553.2815292
553.3050891
553.3248067
553.3470678
553.3680642
553.3925222
553.4164415
553.442599
553.4689637
553.4937301
553.5189358
553.5444119
553.571563
553.5991559
553.6256558
553.6528605
553.6803097
553.706616
553.7334687
553.7606276
553.7885232
553.8154529
553.84329
553.8703626
553.8983499
553.9249433
553.9523588
553.9786252
554.0034921
554.0298902
554.0554706
554.0823465
554.1085108
554.1326977
554.1570925
554.1805989
554.2041933
554.2285418
554.2510316
554.2733377
554.294746
554.3173361
554.3388778
554.3590145
554.3797074
554.3998109
554.4195876
554.4385444
554.4572931
554.4762333
554.4948173
554.5132209
554.5306493
554.552059
554.5842508
554.6110929
554.6336191
554.6539497
554.6702479
554.6878272
554.6989685
554.7177228
554.7307676
554.7471616
554.6913757
552.9583683
552.9312695
552.9190249
552.9045172
552.9323256
552.9287937
552.9323722
552.9468224
552.9375665
552.9508488
552.9560294
552.9662304
552.9744819
552.9862581
553.0035155
553.0135963
553.0212423
553.0336236
553.0514457
553.0681419
553.0904057
553.1067044
553.1228177
553.1442596
553.1646461
553.1862418
553.2084913
553.2288723
553.2510518
553.2723461
553.2995113
553.3261728
553.3520771
553.3776746
553.4037291
553.4293427
553.4565055
553.4861982
553.5137786
553.5409737
553.5692026
553.5978223
553.6261822
553.6521165
553.6811735
553.7103678
553.7391535
553.7682097
553.7962075
553.8251209
553.8543206
553.8814407
553.9087553
553.9353869
553.9623366
553.9894634
554.0176121
554.0450409
554.0707235
554.0957515
554.1202845
554.1449074
554.1704723
554.1939419
554.2167121
554.2400103
554.2632875
554.2861191
554.3078053
554.3287701
554.3494477
554.3701847
554.3908357
554.4108
554.4306917
554.4500005
554.4688065
554.4895623
554.5221479
554.5570097
554.5830944
554.6029566
554.6252825
554.6413622
554.6571699
554.6708479
554.6897873
554.7035709
554.720907
554.6548919
552.8254027
552.8239132
552.8038236
552.7946177
552.8243521
552.8161317
552.8201983
552.8330082
552.8283746
552.8446804
552.8486707
552.8582221
552.8677894
552.8802313
552.8946173