/*--------------------------------*- C++ -*----------------------------------*\
| =========                 |                                                 |
| \\      /  F ield         | OpenFOAM: The Open Source CFD Toolbox           |
|  \\    /   O peration     | Version:  2206                                  |
|   \\  /    A nd           | Website:  www.openfoam.com                      |
|    \\/     M anipulation  |                                                 |
\*---------------------------------------------------------------------------*/
FoamFile
{
    version     2.0;
    format      ascii;
    arch        "LSB;label=32;scalar=64";
    class       volScalarField;
    location    "0.01";
    object      thetaP;
}
// * * * * * * * * * * * * * * * * * * * * * * * * * * * * * * * * * * * * * //

dimensions      [0 0 0 0 0 0 0];

internalField   nonuniform List<scalar> 
18900
(
0.000472864495
0.0006821712028
0.0005345114378
0.0006504035702
0.0005922805972
0.0005835728254
0.0007938206991
0.0004788634901
0.0004403178077
0.000590183563
0.0005703210895
0.0005673417367
0.0006143830568
0.0006886804239
0.0005443322496
0.0005235480241
0.0005052555806
0.0005198678664
0.0005910832239
0.0004536109136
0.0005246720359
0.000492553067
0.0005348516517
0.0005831903022
0.0006024629622
0.0005392504223
0.0005672866641
0.0005322060245
0.0005263402583
0.0005595279905
0.0006028973502
0.0004988112479
0.0005576277616
0.0005675667405
0.0005286264506
0.000526001736
0.0004986720965
0.0005754433993
0.0005756201955
0.0006119888702
0.0005461583988
0.0005306902089
0.0005937062752
0.0005329601277
0.0005929482547
0.0005300192768
0.0005632221303
0.0005020921994
0.0006099102699
0.0005171681998
0.0005448946503
0.0005411041007
0.000575739855
0.0005422726197
0.0005141657623
0.0005794404386
0.0005227670427
0.0005545464742
0.0005585832118
0.0005699352422
0.000518517392
0.00057703053
0.0005662027091
0.0005801375387
0.0005261309713
0.0005717598429
0.0005428314625
0.0005638719842
0.00059393003
0.0004982503217
0.0005294203125
0.00053502731
0.0005384431651
0.0005228003376
0.0005252985917
0.0005713767693
0.000585572725
0.0005351954717
0.0005560060852
0.0005183632628
0.0005370305144
0.0005847673813
0.0005711682498
0.0005386982628
0.0005251366584
0.0005527880199
0.0005132931738
0.0005204669402
0.0005537605163
0.0005765308073
0.0006368515453
0.0006890585817
0.0006351858888
0.0005663536341
0.0007390275745
0.0007332366158
0.000765388262
0.0006624562599
0.0005466883116
0.0005630231989
0.0006284500376
0.0006549368773
0.0004701409311
0.0005449129286
0.0006414659625
0.0006295641704
0.000604867288
0.0006541706662
0.0006685288868
0.0006693568322
0.0006700325681
0.0006813943213
0.0006538077307
0.0006581880997
0.0007094443322
0.0006778424638
0.0006806360853
0.0006999730692
0.0006854832408
0.0006485212255
0.0006618301111
0.0006644943682
0.0006292460706
0.000655522915
0.0007222910144
0.0006582250638
0.0006416514238
0.0006910003405
0.0006862477468
0.0006451282593
0.0006398651053
0.0006567962552
0.0006211183644
0.0006359044565
0.0005819196186
0.0006500927442
0.0006696866587
0.0006597868405
0.000623846722
0.0006731668581
0.0006354165783
0.0006488659098
0.0006990091234
0.000646061214
0.0006268100703
0.0006353039086
0.0006474522012
0.0006760823768
0.0006665761605
0.0006938440638
0.0006744548452
0.000662999135
0.0006817659378
0.0006470603513
0.0006978076711
0.0006355131041
0.0006445463839
0.0006334620234
0.0006422359682
0.0006389849495
0.0006463504023
0.0006192632679
0.0006502017288
0.00065203606
0.0006170485617
0.0006231995983
0.0006388422663
0.0006454770438
0.0006792117321
0.0006303585482
0.0006551580272
0.0006756990706
0.0006608852017
0.0006711318228
0.0006314744912
0.0006418233573
0.0006340700538
0.0006474943174
0.0006440010512
0.000620901651
0.0001608203414
0.0007495551516
0.0007057587816
0.0007322517622
0.0005687535169
0.0005954161206
0.0006258556654
0.0007647366765
0.0006177240026
0.0005937976714
0.000695251704
0.0007511340928
0.0007028336437
0.0007026568226
0.0007350606732
0.0006969687757
0.0006539333098
0.0006832506973
0.0006837725953
0.0006197719366
0.0006576788231
0.0007865986892
0.0006221745594
0.0006714816687
0.0006624634235
0.0006266100827
0.0005817375056
0.0006448206451
0.0007551020653
0.0006919000482
0.0005973397331
0.000624489492
0.0007070147339
0.0006021563255
0.0006848237331
0.0006431428772
0.0007177983658
0.0006404964144
0.0006292522514
0.0006749840263
0.0006785468499
0.0006412515951
0.000674263255
0.0006423247156
0.0006341996877
0.0005961968524
0.0006780898555
0.0006279066338
0.0006222880704
0.0006245817041
0.0006704582128
0.0006229414127
0.0006221487591
0.0006639333099
0.0006540112078
0.0006553716765
0.0006379073512
0.0006881715444
0.0006474594059
0.0006716472422
0.0006338503184
0.0006439355274
0.0006584982089
0.0006452898754
0.0006616748495
0.0007223141322
0.0006533144976
0.0006331808426
0.0006268039305
0.0006605468591
0.0006262932217
0.0006548529234
0.0006526357256
0.0006606551098
0.0006433518215
0.0006215734566
0.0006423634726
0.0006452525061
0.0006746664198
0.0006629794246
0.000687688248
0.0006514558885
0.0006413966237
0.0006404936576
0.0006580852613
0.0006535176108
0.0006636524066
0.0006082239308
0.000673136533
0.0006545107604
0.0009746641543
0.000703042653
0.0005832689784
0.0006703030707
0.0004488248449
0.0007481172562
0.0006321744686
0.0008690148651
0.0007090462567
0.0006673750965
0.000618303945
0.0005707784827
0.0007355126866
0.0006092029667
0.0005939856315
0.0005960922953
0.0006123213154
0.000671987161
0.0006649366552
0.0005691175645
0.0005561739766
0.0006437248582
0.0006670764107
0.0007353425064
0.0007045396658
0.0007101238816
0.0006321268563
0.0006884682135
0.0006580919136
0.0006324516553
0.0006906668085
0.0006407282695
0.0006901073871
0.0006408615318
0.000642005104
0.0006496362172
0.0006823957148
0.0006863614247
0.0006356053477
0.0006208888553
0.0006719960078
0.0006981252571
0.0006646813906
0.0005794849129
0.0006857400545
0.0007481052053
0.0006434750105
0.0006099144551
0.0006396819506
0.0006324415604
0.0006315715551
0.0006322129288
0.0006021237584
0.0006921313165
0.0006282863397
0.0006426804835
0.0006335184608
0.000659233795
0.0005978649009
0.0005950676059
0.0006465515099
0.0006677818485
0.0005993628571
0.0006793628148
0.0006188474935
0.000680889022
0.000615383702
0.0006474418152
0.0006353460571
0.0006388701399
0.0006530234253
0.0006371225977
0.000655052593
0.0006056310931
0.0006660681075
0.0006188511852
0.0006616681522
0.0006459304196
0.0006190891962
0.0006298904832
0.0006619097952
0.000642343733
0.0006788535648
0.0005839738557
0.00062562773
0.0006372925524
0.0006347972281
0.0006392135016
0.0006316684778
0.0006343393743
0.0004922523092
0.0006008883317
0.0005564268248
0.0005603343116
0.0006346988178
0.0005334144306
0.0007637643357
0.0004768234733
0.0006111615772
0.0007423777076
0.0006630987573
0.0005413862595
0.000665414586
0.000597430716
0.0006777581973
0.0006488260775
0.0006574643212
0.0006695991289
0.0007236487422
0.0007144732337
0.0007412497122
0.0006242151147
0.0006667186328
0.0006851090264
0.0006304139695
0.0006486827937
0.0006624905374
0.000701190283
0.0007120186726
0.000609310971
0.0006094624161
0.0006923505305
0.0006582135701
0.000682640848
0.0006553371706
0.0006451107337
0.0006009706787
0.0006953856449
0.0005747630732
0.0006489889493
0.000653640627
0.0006674638887
0.0006456401586
0.0006697244112
0.0006225203301
0.0005997287827
0.0006700739206
0.0006668655126
0.0006685869109
0.0006812060285
0.0006364108432
0.0006370897946
0.0006244413866
0.0006687227621
0.0006190123984
0.0006728512959
0.0006344452692
0.0007491257919
0.0006500507542
0.0006528924186
0.0006301642017
0.000704558411
0.0006374076095
0.0006341803291
0.0006703405458
0.0006362104886
0.0006642666858
0.0007062060117
0.0006618855769
0.0006078785459
0.0006476826695
0.0006061391575
0.0006532373081
0.0006480973118
0.0006420717693
0.0006402470707
0.0006324907823
0.0006455736446
0.0006679985138
0.0006534718226
0.0006497058183
0.0006357778413
0.0006120744341
0.0006498565697
0.0006337395279
0.0006437268302
0.0006473380623
0.0006439361529
0.0006483094427
0.0006373625977
0.0003314896524
0.0005517907426
0.0005951203546
0.0007075061651
0.0006411217726
0.0007034492842
0.0006070763173
0.000744365468
0.0006848675878
0.0006205977603
0.0006074999497
0.0007031102428
0.0006590950318
0.0006155440504
0.0005555477757
0.0006868480869
0.0006296792155
0.0006995355467
0.0005996565471
0.0007092565386
0.0006778127973
0.0005517121703
0.0007451061913
0.000561852236
0.000587552845
0.0006457918673
0.000629825541
0.000638326856
0.0006714575598
0.0006941002789
0.0006444409827
0.0006664100505
0.0006329741229
0.0006871644607
0.0006642687733
0.0006673072649
0.0006853742973
0.0006643322506
0.0006732175435
0.0006274825959
0.000580158223
0.0006437374244
0.0006651718478
0.0006474747009
0.0006908073759
0.0006629070931
0.0006666929583
0.0006603642368
0.000649430784
0.0006167439751
0.000714268509
0.0006526553418
0.000690396392
0.0006827899154
0.0006310031283
0.0006360280266
0.0006477609602
0.0006482075347
0.0006726005938
0.0006307010153
0.0005658046339
0.0006156058716
0.0006314169937
0.0006405864244
0.000666287568
0.0006698571119
0.0006604921853
0.0006250317225
0.0006143622652
0.0006518379942
0.0006465530607
0.0006716511676
0.0006087504931
0.0006210709751
0.0006382120484
0.0006375321022
0.0006378716848
0.0005965109102
0.0006257783387
0.0006320438463
0.0006658048199
0.0006205396312
0.0006238326711
0.0006050061469
0.0006337910147
0.0006430609511
0.0006078634919
0.0006469401573
0.0006686772192
0.0005789049328
0.0005027228752
0.0008368203287
0.0008356759858
0.0006914672929
0.0006111532864
0.000590149897
0.000652129872
0.0007968392951
0.000643653633
0.0006884365401
0.0005354498077
0.0006749527909
0.0006729507136
0.0006650296405
0.0006921507747
0.0006997084394
0.0006117407648
0.0007165992193
0.0006505048763
0.00063738404
0.0007848687912
0.0006336659651
0.0005794589428
0.0006269080861
0.0007333856105
0.000659256549
0.0006520503388
0.000618816779
0.0006390666832
0.0006167468929
0.0006170855521
0.0006148053879
0.0006572823767
0.0006009549874
0.0006575651426
0.0006859457759
0.0006554964388
0.0006651998441
0.0006098325681
0.0006708414943
0.0007188284134
0.000666194848
0.0006649461668
0.0006252311975
0.0007037458778
0.000643920063
0.0006757036741
0.0005989940588
0.0006450789346
0.0006860038159
0.0006781319071
0.0006213467687
0.0006647854559
0.0006533068467
0.0006466030461
0.0006856590948
0.0007092973931
0.0006429557467
0.0006072448199
0.0006058466806
0.0006434860463
0.0006887823833
0.0006207237154
0.0006253384824
0.0006358742058
0.0006532438431
0.0006629936016
0.0006306961228
0.000679293851
0.0007005587735
0.0006436387177
0.0006429570255
0.0006616542081
0.0006140590794
0.0006232145266
0.0006166434295
0.000629571431
0.0006040183421
0.0006256707883
0.0006487032899
0.0006055627335
0.0006177833875
0.0006240516376
0.0006598576565
0.0005792842338
0.0005966481266
0.0006252174947
0.0006301239581
0.0006139519984
0.0006266386164
0.001358437581
0.0006783888333
0.0006097367665
0.0008940522523
0.000656912171
0.0007668072693
0.0008035065736
0.0005832982192
0.000602979177
0.0006448205888
0.0007024034835
0.0006841988488
0.0006487516386
0.0007484074915
0.0006959515273
0.000666395428
0.0007009040092
0.0006600781122
0.0005429105885
0.0006250268082
0.000755457522
0.0006656430817
0.0006684042177
0.000688430476
0.0006764386332
0.0006718202538
0.0006116271086
0.0006395710192
0.0006971470371
0.0006338955752
0.0005936809584
0.0006885834295
0.0006264732319
0.000646186053
0.0007119976541
0.0006935679745
0.0006002798162
0.0006878769675
0.000665159193
0.0005634128435
0.000615118257
0.0006407777883
0.0007356833678
0.0006958091949
0.0007122845012
0.0006693932793
0.0006700604868
0.0006061593567
0.0006280570019
0.0006799251484
0.0006324619053
0.0006384115171
0.000711429423
0.0006675780611
0.000609202131
0.0006194235307
0.0006632704448
0.0006289812514
0.0006492062789
0.0006673692911
0.0006532243754
0.0006226849345
0.0005880533352
0.000723927929
0.0007011051406
0.0006413457981
0.0006408430393
0.0006685990589
0.0006560900908
0.0006450916386
0.0006816557917
0.0006406649332
0.0006358070383
0.000694620438
0.0005956898838
0.0006366669501
0.0006269437102
0.0006021937489
0.0006776312101
0.0006310290585
0.0006463490603
0.0006477380841
0.0006166339327
0.0006419179624
0.0006237498226
0.0006391280449
0.0006187003991
0.0005817011195
0.0005925882281
0.0007233374325
0.0003450463723
0.0009190719974
0.0004130672327
0.0004665757109
0.0007248828462
0.0006702966475
0.0005269595654
0.0006842188737
0.0006833993626
0.0006376817578
0.0006006223548
0.0006661909199
0.0008298583214
0.0006416906946
0.0005792110105
0.0006068428348
0.0005489150452
0.0007054162329
0.0007304814548
0.000657665633
0.0006125883032
0.0007166282102
0.0006840686021
0.0006185345188
0.000640649662
0.0006116203858
0.0006448553399
0.0007333914586
0.0006864368982
0.000600241769
0.0006073692788
0.0005848887668
0.0006816888979
0.0006756362253
0.0006169003797
0.0006340812015
0.0006866448835
0.0006124704779
0.0006218657925
0.0006370349368
0.0006534512779
0.000671020548
0.0007187979055
0.0006201499393
0.0006668514173
0.0006100390407
0.0006265360804
0.0007115489013
0.0006793975961
0.0006751176509
0.000656376681
0.0006336010723
0.0006803746519
0.0006503406614
0.0006679716245
0.000671674741
0.000620286773
0.0006346345777
0.00063451775
0.0006522081788
0.0006746684309
0.000661939759
0.0006574371115
0.0006492322368
0.0006690018673
0.0006806971133
0.0006126873697
0.0006380948161
0.0006177540632
0.0006819484386
0.0006799256471
0.0006598469827
0.0006236054927
0.0006048816047
0.0006799370087
0.0006416933508
0.000602375342
0.0006452903542
0.0006223636753
0.0006426031448
0.000627299849
0.000634113623
0.0006163710796
0.0006038831981
0.000625946333
0.0005995449827
0.0005654196833
0.0005853129427
0.0006165241646
0.0008683550847
0.0007029593923
0.0004096426703
0.0006313199419
0.0006005892186
0.000466609229
0.0005720299048
0.0005640838409
0.0008022856193
0.0007276437159
0.0006503648156
0.0005878128046
0.0006343134069
0.0006523752497
0.000616281326
0.0007105376732
0.0006528803379
0.0006860293381
0.0006955317067
0.0006619689275
0.0005567325352
0.0006088622076
0.0005800068536
0.0006835610086
0.0007159828269
0.0006406361472
0.0006889005694
0.0006978651812
0.000637690494
0.0006237875128
0.0006455572372
0.0005819066894
0.0006549932716
0.000639565255
0.0006936601911
0.0006705534722
0.0006631225823
0.0006165357926
0.0006788318602
0.0006034385489
0.0006306210303
0.000683580913
0.0006951626521
0.0006962194408
0.0005806838782
0.0006715769402
0.0006767566789
0.0006127978338
0.0006633422958
0.000611041391
0.0006203990848
0.0006793128011
0.0006053254761
0.0006717957018
0.0006792192501
0.0006771179786
0.0006524314242
0.0006731177763
0.0006129725896
0.0006464814693
0.0006900623039
0.0006755088735
0.0006451391163
0.0006130957945
0.0006596140846
0.0006128388105
0.0006947844774
0.0006238511842
0.0006327976016
0.0006256755441
0.0006331229145
0.0006462440837
0.0006554951357
0.0006163611407
0.0006280240443
0.0006092856867
0.000629508954
0.0006166697117
0.0006309033501
0.0006215442965
0.0006124261452
0.0006292443095
0.0006151798725
0.0006505853942
0.0005781885456
0.0005916629876
0.0006086755408
0.0005775497538
0.0006433809531
0.0005687523384
0.001185229082
0.0001794662467
0.0008367991644
0.0007882538424
0.0005113797856
0.0007152741281
0.000665898907
0.0006315972575
0.0006776760601
0.0008280064868
0.0005996574272
0.0006098395416
0.0005795162144
0.0006321442414
0.0006439716415
0.000605179314
0.0006742389172
0.0005416911231
0.0006214930412
0.0006590761352
0.0006112100595
0.0006282861708
0.000647811025
0.0006303014176
0.0007228922603
0.0006067194476
0.0006169745595
0.000719215908
0.0006383187955
0.0007509034184
0.0006506745669
0.0007265556023
0.00063911012
0.0006324947596
0.0005766836801
0.0006558316214
0.0007156513925
0.0006956101229
0.0006278137239
0.0007152549119
0.0007342119269
0.0007371515576
0.0006497978381
0.0007036953799
0.0005792659369
0.0006810707531
0.0006046941181
0.0006212175125
0.0006917767942
0.0006646499884
0.0007121243406
0.0006788106403
0.0006518548615
0.000634180335
0.0006624142712
0.0006753117156
0.0006612748351
0.0006492690083
0.0007472175938
0.0006574598293
0.0006432267331
0.0006721957404
0.0006455786892
0.0005674896891
0.0006193038798
0.0006414611499
0.0006524194168
0.0006113376743
0.0006822375934
0.0006770392325
0.0006299920605
0.0005989185736
0.0006503245276
0.0006541420928
0.0006286913244
0.0006499534378
0.0006150343388
0.0005810491179
0.0006374466519
0.0006520290724
0.0006264117133
0.0005886936417
0.0005729078754
0.0006279796354
0.0006008394756
0.0006360386703
0.0005854726694
0.0006298947821
0.0005786302768
0.0006066744544
0.001433114281
0.0007348640185
0.0007343974672
0.0006971960323
0.0007595761006
0.0004682299774
0.0007989658763
0.0006615207405
0.0004997979112
0.0006556910809
0.0006631839964
0.0006083326725
0.0007612605028
0.0005978536646
0.000640937486
0.0005963755543
0.0006514746211
0.0006777553486
0.0007165425026
0.0006921511942
0.000754032681
0.0006947287127
0.0005861502568
0.0005718802261
0.0005896480835
0.0006502635346
0.0006102502603
0.0006551720206
0.0006408930217
0.000681497417
0.0007039904024
0.0006095676604
0.0005698938352
0.0007268914152
0.000640305427
0.0006710821853
0.0006721853954
0.0005918381871
0.0006573855326
0.0006073413676
0.000682758231
0.0007033519337
0.0006688174524
0.0006697294642
0.0006375778614
0.0006633425859
0.0005440523603
0.0006883389232
0.0006736103019
0.0007204552602
0.0007056617364
0.0006648643042
0.0007838290317
0.000649351025
0.0007105812474
0.0006546702685
0.0006330183416
0.000667504342
0.0006448319599
0.0006382131652
0.0006438245347
0.0006315391011
0.0007009246068
0.0006224378219
0.0005956273004
0.0006387934182
0.0005962239466
0.0006152743127
0.0006707204178
0.000642575984
0.0006075623388
0.0006417764171
0.0005716501137
0.0006410224868
0.0006660945122
0.0006510630823
0.000623471315
0.0006000998555
0.0006152171149
0.0006356105902
0.0005894901485
0.0006306827505
0.0006130411162
0.0005893685313
0.0005833011067
0.000629965046
0.0006027792528
0.000616288536
0.0006244116182
0.0005932059495
0.001887593877
0.0001885085744
0.000565311117
0.0009041261866
0.0005379501996
0.0005855315366
0.0008380416056
0.0006943691276
0.0005263611871
0.0008400919156
0.0006722901733
0.0007511103786
0.0005876161827
0.0006229819682
0.0007364288151
0.0006142830381
0.0006833085588
0.0007268692039
0.0006530028367
0.0006326995559
0.0007008842935
0.0006345425443
0.000678829214
0.0006692604578
0.0006803937433
0.0006524468816
0.0006157013508
0.0006910347074
0.0007302757105
0.0006553305527
0.0006582843425
0.0006273730922
0.0007258213964
0.0006774978942
0.0006543500163
0.0007028323447
0.0005594506988
0.0006844917716
0.0006884829135
0.000665637232
0.0006533891141
0.000634847555
0.0006351590318
0.0006595580293
0.0006186113644
0.0007050429812
0.0006526253094
0.0006365026573
0.0006798386575
0.0006235309636
0.000646574446
0.0006539636626
0.0006141042896
0.0006572661836
0.0007214058402
0.0006773925515
0.0005880632274
0.0007405251395
0.0006144120675
0.0006435965925
0.0006530506232
0.0006452926844
0.000681619298
0.000617146785
0.0006630207386
0.0006887400984
0.0006555029982
0.0005813461487
0.00060989409
0.0006620294961
0.0006297672103
0.000627422168
0.0006758333648
0.0006447254516
0.0007029703212
0.0006099707659
0.0006191366848
0.000625637159
0.00063557133
0.0005718513328
0.0006278132784
0.0006835479119
0.0005850928677
0.0005363423203
0.0006501918882
0.0005776249858
0.0005763461532
0.0006180985484
0.000593016155
0.0007334811651
0.002169815229
0.002132517741
0.0006461632474
0.0008528610046
0.0006368238287
0.0004091351082
0.0005989772666
0.0007452835593
0.0007492120326
0.0007180176044
0.0007749634859
0.0007749279908
0.0005811724666
0.0006818850398
0.0007820206997
0.0006746339461
0.0006873332703
0.0007278434084
0.0007194516177
0.0006962649359
0.000665526483
0.000713380128
0.000644169965
0.00065429128
0.0006140982033
0.0007274157351
0.0006609273497
0.0006360099048
0.0006234750523
0.0006322178153
0.0007191889427
0.0006543538547
0.0006059369489
0.0006737913303
0.0006219058723
0.000632014677
0.0006825118651
0.0006107597198
0.0005712619893
0.0007125920458
0.0005915319219
0.0006679630146
0.0006963352849
0.0006275422906
0.0007871104515
0.0006278207733
0.0006162325108
0.0007157415478
0.0006905530148
0.0006844143571
0.0006648015076
0.000682494487
0.0006636883622
0.0006437499648
0.0006536065595
0.0006631112931
0.0006442716353
0.0006432997685
0.0006677246792
0.0007312144694
0.000694546892
0.0006317573055
0.0006880382134
0.0006164540901
0.0006451829849
0.0006760574705
0.0006956045986
0.0006589358647
0.0006449888172
0.000668426508
0.0006463417549
0.0006055256737
0.0006271950139
0.0006038987412
0.0006316581701
0.0006246447086
0.0006643505702
0.0006175568953
0.0007155719106
0.0006083607257
0.0006119292178
0.000595995919
0.0006056361923
0.0006008334678
0.0006301147175
0.0006216798455
0.0005768204692
0.0005861632322
0.0005897090618
0.001239486918
0.002458597783
0.0001998145516
0.0003997318321
0.0007597078784
0.0007999273652
0.0008001663046
0.0006912621411
0.0007082714006
0.0006140261643
0.0007775925173
0.0006748726694
0.0007634950194
0.0005317153416
0.0006176908967
0.0006687197063
0.0007196928856
0.0006216837077
0.0006268056315
0.0006887696971
0.0006300425683
0.0006855750749
0.0006867016122
0.0005941780437
0.0006797847224
0.0006853666494
0.0007316220879
0.0006755420454
0.0006655086429
0.0006415543608
0.000697136062
0.0007011284602
0.0006287682077
0.0007244480195
0.0006651410871
0.0007179447047
0.0006593244917
0.0006723537632
0.0005765865523
0.0006613177039
0.0006996470071
0.0006796589123
0.0006756730248
0.0006352433154
0.000677848594
0.0005902342324
0.0006844561418
0.0006607806924
0.0006687126562
0.0007020155599
0.0006794642042
0.000721544992
0.0006672639685
0.0006506548284
0.0006075042386
0.0006802716171
0.0006475189881
0.000650862914
0.0007318018561
0.0006323799501
0.0007266809032
0.0006718583791
0.0006965828485
0.0006939148231
0.0006667687379
0.0006307841561
0.0006626318369
0.0006450173077
0.0006603259626
0.0006143783668
0.0006402048705
0.0006727177616
0.0006926864428
0.000654582987
0.000627439764
0.0006570568612
0.0006444333577
0.000664909518
0.0006080356713
0.0006151610946
0.0006510584982
0.0006302258025
0.0006535544728
0.0006700014516
0.0006083142222
0.0005964042636
0.0006092913146
0.0006182636673
0.0006006712385
0.000620234045
0.002115253145
0.002118355496
0.0004127665871
0.0008260543429
0.0009092926726
0.0006794978464
0.0007588208871
0.0007154345078
0.000669572071
0.0007189804096
0.0008057766201
0.0006121668403
0.0007522226727
0.0006873146905
0.0006827511714
0.000702078959
0.0007260263668
0.0006864187577
0.0006516232397
0.0006327536393
0.0006216018467
0.0006706442189
0.0006537312866
0.0006384153403
0.0006524454953
0.0005849669348
0.000681536324
0.000680037308
0.0007104410476
0.000665993929
0.0005433252999
0.00059320959
0.0007091068155
0.0007038867845
0.0006274878959
0.0006187011012
0.0006043045517
0.0006951464325
0.0007550402316
0.0006704222926
0.0006369791974
0.0005971361694
0.0005802285918
0.00060516113
0.0006139462875
0.0006223642708
0.0006592053167
0.0006710445198
0.0006571421314
0.0007068587717
0.0006796053969
0.0006772344674
0.0006728538075
0.0006207484128
0.0006462327352
0.0006627912212
0.0006669496447
0.0007504951795
0.000692063598
0.0006393417776
0.0006713540583
0.0006533591699
0.0005984351198
0.0006015068913
0.0006564650597
0.0006261932179
0.0006825692904
0.0006428890939
0.000633755467
0.0006007357778
0.0005797601011
0.000654946602
0.0006415678117
0.0006682233025
0.0006731220198
0.0006273659169
0.0006503026955
0.0006393413907
0.000635823486
0.0006677746661
0.0006304808769
0.0006424317672
0.0006145181763
0.0005953560244
0.0006487188622
0.0006190700112
0.0005600591889
0.0006095227414
0.0006004505209
0.001037797868
0.002604342227
0.002172692999
0.0002136074587
0.0009978854376
0.000856322799
0.0007960922041
0.0006199148316
0.0004296805557
0.0004301908334
0.0006891238808
0.0005326776327
0.0006135098773
0.0006380748136
0.0005268387045
0.0005632608356
0.0005783944294
0.0007712837522
0.0006732936194
0.0007124021085
0.0006974068112
0.0007961400648
0.0005545614063
0.0006081659241
0.0007028038582
0.0006577601656
0.0006585530577
0.000654862141
0.0006774021246
0.0006276860978
0.0006978349809
0.0006509171744
0.0006820813538
0.0006822926609
0.0005488491374
0.0007033142765
0.0006234557385
0.0006770491034
0.0006305440356
0.0006873303131
0.00063111563
0.0007025671504
0.0006317863056
0.0006363042888
0.0006541679633
0.0006818409861
0.0006282030545
0.0006477300334
0.0007185088171
0.0006917818813
0.0006352242484
0.0006672156239
0.0006270759291
0.0006468582019
0.0007210777095
0.0006540683166
0.0006702958248
0.0007173679871
0.0006415654405
0.000624920423
0.0006486346209
0.0006892443311
0.0006380192858
0.0006605160621
0.0007085339642
0.0006851677717
0.0006824736431
0.0006602015276
0.0006809172469
0.0005897462227
0.0006538038157
0.0006365946807
0.0006282153968
0.0006942864224
0.0006154204727
0.0006446639322
0.000698607925
0.0006838169767
0.0005981248571
0.0006584164607
0.0006446797846
0.000659702175
0.0006507402815
0.0006741719471
0.0006537177453
0.0005893819963
0.0006340005128
0.0006174826321
0.0006207259356
0.0005923809482
0.002113293303
0.002433327096
0.002324029329
0
0.0006655696756
0.0004888941642
0.0006995939681
0.0004459475333
0.0007918801466
0.0004646676776
0.0006275019161
0.0005942317858
0.0006982744481
0.000632843099
0.0006965135001
0.0005966762042
0.0006791909113
0.0006725226732
0.000600889391
0.0006895477753
0.0006772976043
0.0007158243549
0.0006861316124
0.0007264097303
0.0005817229262
0.0006130033739
0.0007005970478
0.0006543119386
0.000665961734
0.000663751983
0.0006069793405
0.0006966768167
0.000654488716
0.0006684828662
0.0007298670006
0.0006258783352
0.0006851272904
0.0006595969009
0.0006619627796
0.0006997368665
0.0007042398308
0.0006564366497
0.0006409031274
0.0007168407767
0.0006807324035
0.0005875080743
0.000692708713
0.0007453153495
0.0006513755555
0.0006616178688
0.0007699617731
0.0006934499069
0.000622256481
0.0006730204163
0.0006305962805
0.0006979519337
0.0007177670077
0.0006612623251
0.0006613990911
0.0005839911699
0.0006363186285
0.0006327669196
0.0006129034607
0.0006301349268
0.0006488921697
0.0006553363423
0.0006383486384
0.000637171003
0.0006568181482
0.0006852816119
0.0006873001331
0.0006711590283
0.0006447148159
0.0006596374979
0.0006497677759
0.0006211856459
0.0006546910979
0.0006975450221
0.0006628265642
0.0006272821413
0.0006755871391
0.0006439629629
0.0006178324617
0.0006206432318
0.000624976948
0.0006323283845
0.0005525484849
0.0006587393191
0.0006102578417
0.001430592111
0.003054720693
0.002140819107
0.00248013573
0.0006903904422
0.0008454409472
0.0005083426538
0.0006285260043
0.0006446185715
0.0005708416442
0.0007709207224
0.0006695796673
0.0006333949711
0.000506216936
0.0007052910651
0.0006043826195
0.0008689127939
0.0005696635711
0.0007277818541
0.0005673087238
0.0007722525557
0.0006615050068
0.0006658934161
0.0007191675631
0.0006738485019
0.0006830915957
0.0006487831215
0.0005967958045
0.0007170943802
0.0005952272755
0.0005785968726
0.0006696284712
0.0007032774858
0.0005646541257
0.0007123226342
0.0006716743262
0.0006979312858
0.000726501973
0.0007536202601
0.0006920317383
0.0007188121302
0.0006180789251
0.000632517297
0.0006526866507
0.0006658155743
0.0007178050131
0.0006490781048
0.0007748169929
0.0006737528989
0.0006826561313
0.0007295254134
0.0006084837674
0.000607745062
0.0005812497555
0.0006470954557
0.000660833575
0.0006692532828
0.0007136062262
0.0006830461439
0.0007165271028
0.000746715451
0.0006108702147
0.0006195474629
0.0006565568285
0.0006124652008
0.0006379380472
0.0006122479078
0.0006765344532
0.0006019566179
0.0006829427981
0.0006820945147
0.0006950915605
0.0006553015741
0.0006414963191
0.0006337533879
0.0006768530082
0.0006633890459
0.000624626225
0.0006157515724
0.0006339700206
0.000660676955
0.0006255145941
0.0006847426051
0.0006192539625
0.0006281497348
0.0005511908714
0.000625529698
0.0006243021844
0.0005758216729
0.001038825476
0.003111038745
0.002864855485
0.002070388886
0.002722535537
0.001435481278
0.0007990899624
0.0002883073666
0.0004471874559
0.0004826674966
0.000571707865
0.0008764442023
0.0005507241229
0.0006589192912
0.0006679592983
0.0006522978256
0.0004903250482
0.0006978293317
0.0007023191724
0.0006468442331
0.0007261732165
0.0006611583885
0.0006602794489
0.0006596493872
0.0005824268024
0.0006833989716
0.0006880644406
0.0006477930104
0.000669850655
0.0007727444031
0.0006498550293
0.0005932471597
0.0006515092369
0.0006970886384
0.0006533368008
0.0006752769967
0.0007163604144
0.0006088918677
0.0007073738378
0.000703376238
0.0007251810351
0.00060032736
0.0006895860974
0.0006562659615
0.0006410848523
0.0006751090935
0.0006887517324
0.0007049716356
0.0006842521026
0.0007356303975
0.0007268879082
0.0007156987317
0.0006126753872
0.0006645441145
0.0007145965709
0.000667573798
0.0006352466592
0.0006475756175
0.0006645821958
0.0006067883531
0.0006166859938
0.0007079112498
0.0006404352086
0.0006332207008
0.0007547256663
0.0006489401315
0.0006866278811
0.0005980014861
0.0006896585258
0.0006954589577
0.0007412771734
0.0005962466553
0.0006154822642
0.0006281775379
0.0006426075841
0.0007241864519
0.0006332991576
0.0006995958373
0.0006168959972
0.0006630104744
0.000638823738
0.0006040802009
0.0006324416281
0.0006221454648
0.0005887601748
0.0006395910178
0.0006313881395
0.0006286030482
0.0006224542115
0.001014330948
0.002961645271
0.003458354108
0.001960561162
0.002103915579
0.002830023263
0.0002487729408
0.0008309123925
0.0003997210426
0.0006796188454
0.0005855492411
0.0005258964818
0.0005623401027
0.0007411148903
0.0006851930387
0.0005075911097
0.0006540914181
0.0005431404558
0.0006745710002
0.0006544685533
0.0005753053367
0.000589195124
0.0006875598475
0.0006718839332
0.0005810001424
0.000612353036
0.0006789803394
0.000660988273
0.0006562659867
0.0007133524416
0.0006375596393
0.0006861658555
0.0006766875488
0.0007016049405
0.0005995072841
0.0007064870473
0.0007110351686
0.0006688464297
0.000674398736