/*--------------------------------*- C++ -*----------------------------------*\
| =========                 |                                                 |
| \\      /  F ield         | OpenFOAM: The Open Source CFD Toolbox           |
|  \\    /   O peration     | Version:  2206                                  |
|   \\  /    A nd           | Website:  www.openfoam.com                      |
|    \\/     M anipulation  |                                                 |
\*---------------------------------------------------------------------------*/
FoamFile
{
    version     2.0;
    format      ascii;
    arch        "LSB;label=32;scalar=64";
    class       volVectorField;
    location    "0.01";
    object      U;
}
// * * * * * * * * * * * * * * * * * * * * * * * * * * * * * * * * * * * * * //

dimensions      [0 1 -1 0 0 0 0];

internalField   nonuniform List<vector> 
18900
(
(-0.01753520131 9.015562412e-08 45.2792277)
(-0.03744211789 6.458362896e-07 45.26877038)
(-0.06171146112 7.491724471e-07 45.23793851)
(-0.0854052698 1.133052585e-06 45.19111938)
(-0.109531027 1.632112516e-06 45.12807938)
(-0.1336577329 1.572919231e-06 45.04918516)
(-0.1577546583 2.96693267e-06 44.95459985)
(-0.1817968376 2.329272738e-06 44.84457382)
(-0.2058007715 2.222283188e-06 44.71935226)
(-0.2297166515 3.016076785e-06 44.57913415)
(-0.2534684168 3.744901923e-06 44.42406526)
(-0.2770627298 4.317952308e-06 44.25439436)
(-0.3004585676 4.105415413e-06 44.07038661)
(-0.3236145144 5.195590011e-06 43.87236287)
(-0.3465273283 4.845437223e-06 43.66051474)
(-0.3691768586 5.164642999e-06 43.43513505)
(-0.3915390793 5.794158125e-06 43.19658579)
(-0.4135750379 6.617859079e-06 42.94506444)
(-0.4352357625 5.910046837e-06 42.68091892)
(-0.4565155899 5.886853057e-06 42.40461435)
(-0.4774419683 6.215719795e-06 42.11639153)
(-0.4979117975 7.085349874e-06 41.81654682)
(-0.5179589293 7.277405235e-06 41.50548971)
(-0.5375336804 8.00258702e-06 41.18362374)
(-0.5566156785 9.0618797e-06 40.85128656)
(-0.5752192966 8.62401819e-06 40.50886706)
(-0.593325181 8.812495444e-06 40.15684274)
(-0.6108838307 9.154236404e-06 39.79546793)
(-0.6279035453 9.559634175e-06 39.42514214)
(-0.6443527326 1.032657906e-05 39.04630486)
(-0.6602282086 1.046015435e-05 38.65946758)
(-0.6755249342 9.376141672e-06 38.2649706)
(-0.6902226971 1.068123516e-05 37.86310245)
(-0.7042813664 1.072934871e-05 37.45447983)
(-0.7176650345 1.080742687e-05 37.03942363)
(-0.7304553314 1.097096519e-05 36.61837192)
(-0.7425724409 1.175350233e-05 36.1917428)
(-0.7539770006 1.235831593e-05 35.75995885)
(-0.7647353191 1.193989608e-05 35.32360823)
(-0.7748272543 1.308752263e-05 34.88296673)
(-0.7842539054 1.345549446e-05 34.43842482)
(-0.7929640413 1.301389974e-05 33.99038469)
(-0.8009482857 1.36182005e-05 33.5393643)
(-0.8081859635 1.270056375e-05 33.08583289)
(-0.8147088537 1.35312696e-05 32.63018142)
(-0.8204541873 1.383512756e-05 32.1728115)
(-0.825432216 1.461557587e-05 31.71414899)
(-0.8296565319 1.396134215e-05 31.25465487)
(-0.8331433793 1.505153378e-05 30.79481506)
(-0.835827224 1.501668363e-05 30.33500143)
(-0.8377366336 1.477523613e-05 29.87560684)
(-0.8387941786 1.559207434e-05 29.41713405)
(-0.8390586312 1.57225673e-05 28.9600824)
(-0.838494126 1.648656933e-05 28.50467428)
(-0.8371273393 1.586870721e-05 28.05152314)
(-0.8348494518 1.740034438e-05 27.60105214)
(-0.8317711993 1.640373622e-05 27.15360087)
(-0.8277525269 1.746224785e-05 26.7096997)
(-0.8228035867 1.787128704e-05 26.26978653)
(-0.8169807577 1.704824908e-05 25.83435168)
(-0.8102305686 1.783871487e-05 25.40384495)
(-0.8025394687 1.797128934e-05 24.97857612)
(-0.7938644241 1.776529369e-05 24.55919728)
(-0.7842181431 1.703652188e-05 24.14602568)
(-0.773499301 1.725994411e-05 23.73966128)
(-0.7617240045 1.710868665e-05 23.34045763)
(-0.7487517419 1.684480711e-05 22.94910254)
(-0.7346391201 1.627182928e-05 22.5660095)
(-0.7192607963 1.72069362e-05 22.19188124)
(-0.7027077476 1.575860503e-05 21.82714816)
(-0.6848253684 1.623831171e-05 21.4723662)
(-0.6656156685 1.525304652e-05 21.1281885)
(-0.644962633 1.460626439e-05 20.7952292)
(-0.6228296611 1.53745202e-05 20.47402973)
(-0.5991592111 1.49787379e-05 20.16540372)
(-0.5738531211 1.420844995e-05 19.87000284)
(-0.5468921336 1.40386119e-05 19.58848674)
(-0.5181584528 1.229713774e-05 19.32163045)
(-0.4875645165 1.165232807e-05 19.07022142)
(-0.4550721089 1.120661608e-05 18.8350937)
(-0.4205433797 1.026990228e-05 18.61709302)
(-0.3839617277 1.010684314e-05 18.41712427)
(-0.3452994552 8.026343876e-06 18.23610929)
(-0.3045309254 7.100374698e-06 18.07503259)
(-0.2617716634 5.341130058e-06 17.93476512)
(-0.2170956613 4.456949456e-06 17.81627229)
(-0.1707112339 2.968221597e-06 17.72028081)
(-0.1228675373 1.549776805e-06 17.64760371)
(-0.0740287267 3.057630349e-07 17.59883893)
(-0.02458773496 -4.737790676e-08 17.57420943)
(-0.03441620023 1.303054563e-07 45.39425721)
(-0.07437496407 1.163780709e-06 45.38453519)
(-0.1227210628 1.566755473e-06 45.35430808)
(-0.1698413707 2.00459195e-06 45.30805625)
(-0.217933139 2.841976275e-06 45.24557398)
(-0.2659058731 3.760128613e-06 45.16703726)
(-0.3139226722 5.09390684e-06 45.07272958)
(-0.3617739733 5.394342523e-06 44.96281291)
(-0.40959538 4.686194107e-06 44.83769841)
(-0.4571747521 6.303727233e-06 44.69743852)
(-0.5043560646 7.199603239e-06 44.54222797)
(-0.5513380753 8.584681764e-06 44.37236541)
(-0.5978859436 8.646370774e-06 44.18802258)
(-0.6440141763 9.165640231e-06 43.98961971)
(-0.6895131242 1.030534908e-05 43.77724978)
(-0.7346076232 1.099145807e-05 43.55128027)
(-0.7791349189 1.236656902e-05 43.31210457)
(-0.8228797983 1.346915109e-05 43.05978818)
(-0.8659163388 1.305075128e-05 42.79473736)
(-0.908381398 1.362169103e-05 42.51753137)
(-0.949903863 1.465707581e-05 42.22830375)
(-0.9904636547 1.602128002e-05 41.92731131)
(-1.030507865 1.613152388e-05 41.61512581)
(-1.069375383 1.731795369e-05 41.29198084)
(-1.107352249 1.807307204e-05 40.95827061)
(-1.144354126 1.832087984e-05 40.61440985)
(-1.180396626 1.894521054e-05 40.26086286)
(-1.215164892 1.953188537e-05 39.89792271)
(-1.248892469 2.172657907e-05 39.52595323)
(-1.281647385 2.283925041e-05 39.14534841)
(-1.313242902 2.249617514e-05 38.75682146)
(-1.343612365 2.361558601e-05 38.3604825)
(-1.372724431 2.503130747e-05 37.95662263)
(-1.400721043 2.491694626e-05 37.5459488)
(-1.427095614 2.661205695e-05 37.12882963)
(-1.452766283 2.652857631e-05 36.70575014)
(-1.476626777 2.940817632e-05 36.2768485)
(-1.499374622 2.900452507e-05 35.84272679)
(-1.520815703 2.786940774e-05 35.40411317)
(-1.54074934 2.952641674e-05 34.96119948)
(-1.559503304 3.091828006e-05 34.51429772)
(-1.576737776 3.111135803e-05 34.0636658)
(-1.592576833 3.16490476e-05 33.60999909)
(-1.606977261 3.073871194e-05 33.15387874)
(-1.619941634 3.151436789e-05 32.69561485)
(-1.631313802 3.309857394e-05 32.23534269)
(-1.64098561 3.412872685e-05 31.77388017)
(-1.649490914 3.45646122e-05 31.31171921)
(-1.656512953 3.487750594e-05 30.84895536)
(-1.661765243 3.711977817e-05 30.38617239)
(-1.665296931 3.836596179e-05 29.92364209)
(-1.66761132 3.747210599e-05 29.46210365)
(-1.668100291 3.901777362e-05 29.00198972)
(-1.666934818 3.925758333e-05 28.54336409)
(-1.664188861 3.984767377e-05 28.08679423)
(-1.659651149 3.898156385e-05 27.63303051)
(-1.653482491 4.060581773e-05 27.18213309)
(-1.645293239 4.297356468e-05 26.73456324)
(-1.635691013 4.247106991e-05 26.29106141)
(-1.623953641 4.198492077e-05 25.85205062)
(-1.610757763 4.483606631e-05 25.41779608)
(-1.595470925 4.388561152e-05 24.98864026)
(-1.578398984 4.320959176e-05 24.56528751)
(-1.559302335 4.210670493e-05 24.1479797)
(-1.538052367 4.314942189e-05 23.73730345)
(-1.514701717 4.329965641e-05 23.33361399)
(-1.489262748 4.289915475e-05 22.9375907)
(-1.461428288 4.213651321e-05 22.54965207)
(-1.431496075 4.070520709e-05 22.17048056)
(-1.398486205 4.207761061e-05 21.80065891)
(-1.363531545 3.938359536e-05 21.44037779)
(-1.325628255 3.838964585e-05 21.09055027)
(-1.284978759 3.697665977e-05 20.75168424)
(-1.241401027 3.707806538e-05 20.42431162)
(-1.195147474 3.467896772e-05 20.10910217)
(-1.145295261 3.481987101e-05 19.80691602)
(-1.092260832 3.483663401e-05 19.51831038)
(-1.035897675 3.012700566e-05 19.24389029)
(-0.9756268921 2.90408886e-05 18.98461779)
(-0.9117413033 2.776929943e-05 18.7412911)
(-0.8437260598 2.430585679e-05 18.5146561)
(-0.7715867297 2.314359269e-05 18.30580638)
(-0.6951063908 1.8396258e-05 18.11573712)
(-0.6142992535 1.648017286e-05 17.94555494)
(-0.5290854098 1.368264917e-05 17.79639436)
(-0.4398311866 9.792126149e-06 17.66930161)
(-0.3465934946 6.164860808e-06 17.56538175)
(-0.25004888 3.04262345e-06 17.48582968)
(-0.1509083365 -9.4492035e-07 17.43194693)
(-0.05037413224 -1.083692576e-06 17.40398718)
(-0.05080178394 1.613092299e-07 45.58127155)
(-0.1108478861 1.736057776e-06 45.57234195)
(-0.183126888 2.683713455e-06 45.54304151)
(-0.2535347045 3.032895274e-06 45.49773185)
(-0.3255487937 4.075825973e-06 45.43615501)
(-0.3971333041 5.870975787e-06 45.35792078)
(-0.4690344361 7.524199884e-06 45.2640901)
(-0.5402500716 8.61698603e-06 45.15404764)
(-0.6118981458 7.854209538e-06 45.02923081)
(-0.6828827437 1.067674206e-05 44.88882057)
(-0.7535287701 1.017438507e-05 44.73341985)
(-0.8237653508 1.272242693e-05 44.56314414)
(-0.8930223637 1.448380774e-05 44.37803902)
(-0.9620542705 1.46734107e-05 44.17898953)
(-1.0301417 1.618595358e-05 43.96588488)
(-1.097398281 1.724126959e-05 43.73881985)
(-1.16392318 1.947517183e-05 43.49856221)
(-1.229232921 2.113526331e-05 43.24495648)
(-1.293518603 2.118620606e-05 42.9783996)
(-1.357021404 2.234718466e-05 42.69967828)
(-1.418983935 2.327483365e-05 42.40853159)
(-1.479170233 2.65317596e-05 42.10563105)
(-1.539311876 2.579058982e-05 41.79169433)
(-1.59684697 2.81931687e-05 41.46618646)
(-1.653813657 2.837432367e-05 41.13035329)
(-1.708931009 2.915382976e-05 40.78411485)
(-1.762993482 3.046299266e-05 40.42797097)
(-1.814666838 3.163892501e-05 40.06229291)
(-1.864774687 3.515399397e-05 39.6875078)
(-1.913754531 3.710113054e-05 39.30423455)
(-1.96080039 3.614331595e-05 38.91286143)
(-2.006371208 3.98160471e-05 38.51342433)
(-2.04912914 4.145944255e-05 38.10624912)
(-2.091722155 4.057476154e-05 37.69236179)
(-2.130856353 4.336530436e-05 37.27175302)
(-2.169053477 4.391903207e-05 36.84518402)
(-2.204017087 4.780704453e-05 36.41258761)
(-2.23822807 4.634933227e-05 35.97486164)
(-2.270280185 4.57621928e-05 35.53243217)
(-2.300023866 4.766285276e-05 35.08574724)
(-2.327345331 5.284787059e-05 34.63486028)
(-2.353254447 5.074692366e-05 34.18015777)
(-2.376650983 5.242606959e-05 33.72222512)
(-2.398555254 5.13510591e-05 33.26194145)
(-2.417161374 5.487763818e-05 32.79927106)
(-2.434197023 5.550991447e-05 32.33442805)
(-2.448831099 5.669207275e-05 31.86851565)
(-2.461743533 5.617030577e-05 31.40204176)
(-2.471779934 5.82023807e-05 30.9345241)
(-2.479715489 6.128686218e-05 30.46680011)
(-2.485008659 6.232971282e-05 29.99944657)
(-2.488668107 6.162333017e-05 29.53300303)
(-2.489572742 6.317654245e-05 29.06781731)
(-2.486916881 6.645113591e-05 28.60382025)
(-2.483520204 6.717417327e-05 28.14198137)
(-2.47648175 6.507395697e-05 27.68308953)
(-2.467944323 6.656743758e-05 27.22660985)
(-2.455387967 6.911123889e-05 26.77315477)
(-2.441684932 6.704668558e-05 26.32372431)
(-2.424065194 6.868164509e-05 25.87901594)
(-2.404372953 7.179016301e-05 25.4389743)
(-2.381670623 6.99034062e-05 25.00361341)
(-2.3569575 7.03567805e-05 24.57384448)
(-2.328186176 7.109525773e-05 24.1500771)
(-2.297559209 7.135087273e-05 23.73248251)
(-2.26236533 7.141773261e-05 23.32176961)
(-2.225970519 6.867819837e-05 22.91849417)
(-2.184415766 6.861561855e-05 22.5228412)
(-2.140716122 6.632027448e-05 22.13560133)
(-2.092058544 6.880622038e-05 21.75764273)
(-2.040741735 6.381933576e-05 21.38889827)
(-1.985110688 6.287203845e-05 21.03018435)
(-1.925545697 6.065472596e-05 20.68208699)
(-1.861831904 5.910888796e-05 20.34511011)
(-1.793719809 5.568731859e-05 20.01981483)
(-1.721187164 5.557170505e-05 19.70683962)
(-1.643300647 5.522866863e-05 19.4072596)
(-1.560532101 5.007499507e-05 19.12113575)
(-1.472493986 4.783255044e-05 18.84961675)
(-1.378732371 4.285141264e-05 18.59344575)
(-1.278603936 3.968511505e-05 18.3533078)
(-1.172645134 3.435684243e-05 18.13022183)
(-1.05927531 2.952105516e-05 17.92581074)
(-0.9396767201 2.519242584e-05 17.74045194)
(-0.8122633557 2.085929091e-05 17.57644983)
(-0.6780215927 1.433517028e-05 17.43466824)
(-0.5366179039 8.072699459e-06 17.31689217)
(-0.3889593009 1.97981857e-06 17.22466421)
(-0.2358444119 -4.720791996e-06 17.16104756)
(-0.07943660215 -3.696509351e-06 17.12613908)
(-0.06699562048 3.532900416e-07 45.82847012)
(-0.1472882866 2.162688248e-06 45.82109543)
(-0.2434067508 3.132066883e-06 45.79332256)
(-0.3367985112 4.019992217e-06 45.74859031)
(-0.432607143 5.340475752e-06 45.68791318)
(-0.5278704694 7.866317475e-06 45.61018816)
(-0.6232199945 9.963819654e-06 45.51647671)
(-0.7182824587 1.103853481e-05 45.40689681)
(-0.8134832124 1.107578071e-05 45.28218606)
(-0.9075897374 1.400575131e-05 45.14141567)
(-1.001618509 1.403260945e-05 44.98577952)
(-1.095237098 1.624834374e-05 44.81498177)
(-1.186942664 2.041875619e-05 44.62882631)
(-1.279428617 1.838214148e-05 44.42925299)
(-1.369410465 2.128471573e-05 44.21471155)
(-1.458639228 2.38542963e-05 43.98611937)
(-1.547177332 2.659834579e-05 43.74441727)
(-1.633482097 2.831996228e-05 43.48881415)
(-1.71888766 2.974907613e-05 43.22034626)
(-1.803074067 3.266039617e-05 42.93949455)
(-1.885156931 3.287310721e-05 42.64563949)
(-1.96628033 3.414401465e-05 42.34065818)
(-2.044599318 3.795767669e-05 42.02366664)
(-2.121805525 3.851846149e-05 41.69544479)
(-2.197520074 3.836472297e-05 41.35679733)
(-2.270088734 4.226032852e-05 41.00711933)
(-2.341803261 4.304493819e-05 40.64752557)
(-2.410485837 4.561773275e-05 40.27837433)
(-2.47738887 4.778554195e-05 39.89995421)
(-2.542463158 5.183341861e-05 39.51297374)
(-2.604603526 5.222479236e-05 39.11775287)
(-2.664795287 5.492758902e-05 38.71417566)
(-2.722222926 5.692446239e-05 38.30287365)
(-2.77754954 5.859699164e-05 37.88454217)
(-2.8306847 6.045276673e-05 37.45930323)
(-2.880225781 6.152342026e-05 37.02771487)
(-2.927996916 6.234964053e-05 36.59058956)
(-2.971579247 6.51546851e-05 36.14780836)
(-3.015063805 6.432945458e-05 35.70046932)
(-3.053684251 6.832649105e-05 35.24839772)
(-3.090484108 7.27493387e-05 34.79242816)
(-3.124073309 7.475367234e-05 34.33239169)
(-3.155270253 7.555791621e-05 33.8690376)
(-3.184897463 7.137169305e-05 33.40314883)
(-3.208949105 7.752422389e-05 32.93427534)
(-3.230955026 7.837733205e-05 32.46367384)
(-3.251163222 7.79273e-05 31.9922452)
(-3.267949782 8.052859594e-05 31.51962083)
(-3.280778917 8.331729832e-05 31.04596806)
(-3.291610733 8.719468152e-05 30.57187576)
(-3.29908856 8.685929673e-05 30.09804745)
(-3.302842135 8.751344977e-05 29.62521396)
(-3.305228225 8.780059151e-05 29.15326027)
(-3.300972279 9.355482777e-05 28.68223512)
(-3.297537874 9.483381549e-05 28.21364755)
(-3.287588192 9.462174955e-05 27.74777503)
(-3.276480237 9.580076497e-05 27.28411879)
(-3.259109105 9.949228863e-05 26.8232294)
(-3.242468743 9.538295138e-05 26.36624301)
(-3.220013811 9.378278105e-05 25.91369316)
(-3.193919514 9.543986986e-05 25.4660467)
(-3.163531083 9.782002429e-05 25.02268752)
(-3.132046846 9.735111656e-05 24.58463275)
(-3.094234782 9.978496646e-05 24.15249684)
(-3.053782861 0.0001006064179 23.72605631)
(-3.008875245 9.729154297e-05 23.30626795)
(-2.96075531 9.578334964e-05 22.89356311)
(-2.906299072 9.786091396e-05 22.48804821)
(-2.84945311 9.574925615e-05 22.09070845)
(-2.787971943 9.528703914e-05 21.70212636)
(-2.719693557 9.069370037e-05 21.32255098)
(-2.649037536 8.457628775e-05 20.95227871)
(-2.570866689 8.491603752e-05 20.59236773)
(-2.489044098 8.044554583e-05 20.24303971)
(-2.399910288 7.841565216e-05 19.90493874)
(-2.306884491 7.743815348e-05 19.57801674)
(-2.205452639 7.50321535e-05 19.2642136)
(-2.098945383 6.68449471e-05 18.96300643)
(-1.984900685 6.349958904e-05 18.67554703)
(-1.863495193 5.834404632e-05 18.40232499)
(-1.733326105 5.391554852e-05 18.14442549)
(-1.59590579 4.585359178e-05 17.90203829)
(-1.447866075 4.064152642e-05 17.6776772)
(-1.290847381 3.28337263e-05 17.47123041)
(-1.122712245 2.605742958e-05 17.28522669)
(-0.9436017114 1.769186774e-05 17.12109263)
(-0.7530759281 8.364968606e-06 16.9807824)
(-0.5502021156 -8.734873688e-07 16.8673941)
(-0.3375831822 -1.117349326e-05 16.78609225)
(-0.1160871046 -8.097130553e-06 16.73474873)
(-0.0832228752 6.702348456e-07 46.13897493)
(-0.1835769943 2.062513674e-06 46.13295617)
(-0.3031982277 3.917757433e-06 46.10620131)
(-0.4197411182 5.775306892e-06 46.06268537)
(-0.539335294 7.391301799e-06 46.00317697)
(-0.6583682931 9.910869483e-06 45.92636911)
(-0.7772900515 1.245465058e-05 45.83296507)
(-0.8960578667 1.380011007e-05 45.72376139)
(-1.01454591 1.491086757e-05 45.59879176)
(-1.131679042 1.805453777e-05 45.45750881)
(-1.249348989 1.791132138e-05 45.30192419)
(-1.366024129 2.031051479e-05 45.13034846)
(-1.480512231 2.620501811e-05 44.94304548)
(-1.595244678 2.418222805e-05 44.74203128)
(-1.707611943 2.75908457e-05 44.52591592)
(-1.818760995 3.092981186e-05 44.29551181)
(-1.928988294 3.546059558e-05 44.05172906)
(-2.036370784 3.622524378e-05 43.79374729)
(-2.143817634 3.771219304e-05 43.52349816)
(-2.247994492 4.291255401e-05 43.23958559)
(-2.349782459 4.369901827e-05 42.94240403)
(-2.452496617 4.101802065e-05 42.63498058)
(-2.548855248 4.890237635e-05 42.31407938)
(-2.646430715 4.913616907e-05 41.98278182)
(-2.73989649 5.019332718e-05 41.63996361)
(-2.830672935 5.469720335e-05 41.2860213)
(-2.919440351 5.419688781e-05 40.92218569)
(-3.005178621 5.776543889e-05 40.54858774)
(-3.08766039 6.18628109e-05 40.16535733)
(-3.168557119 6.633424735e-05 39.77371714)
(-3.246584598 6.821338849e-05 39.37377038)
(-3.319959207 7.139377669e-05 38.96472198)
(-3.392942294 7.301782518e-05 38.54854557)
(-3.460677858 7.751632761e-05 38.12449838)
(-3.526541954 7.956524539e-05 37.69335345)
(-3.588161979 8.099098575e-05 37.25575841)
(-3.648293444 8.084667802e-05 36.81269911)
(-3.702207432 8.506669036e-05 36.36367853)
(-3.756081301 8.49634297e-05 35.91021493)
(-3.804608955 8.870965441e-05 35.45178627)
(-3.851056105 9.200571105e-05 34.98920171)
(-3.892201581 9.694255306e-05 34.52229929)
(-3.930781256 9.86937742e-05 34.05196933)
(-3.96597897 9.721808954e-05 33.57886758)
(-3.996388506 9.985988732e-05 33.10275264)
(-4.025463264 9.954470959e-05 32.62524635)
(-4.048959466 0.0001034145961 32.14626969)
(-4.069437794 0.0001080512101 31.66584692)
(-4.086124221 0.0001105536856 31.18480836)
(-4.098669332 0.0001141015507 30.70311769)
(-4.108697348 0.0001102086117 30.22131006)
(-4.114717517 0.0001119761337 29.74036204)
(-4.115199308 0.000116723257 29.25969811)
(-4.111867868 0.0001204089571 28.78021595)
(-4.107091651 0.0001224656614 28.30318803)
(-4.094922477 0.0001241259138 27.8283173)
(-4.08126204 0.000124113656 27.35567591)
(-4.06031739 0.0001287964447 26.88619831)
(-4.039310993 0.0001227544345 26.42055877)
(-4.012098674 0.0001220307121 25.95816887)
(-3.982321485 0.0001199560891 25.50070093)
(-3.944469898 0.0001253333295 25.04744144)
(-3.906058872 0.00012495669 24.59927635)
(-3.860775237 0.0001277360719 24.15646366)
(-3.810432208 0.0001274766514 23.71915807)
(-3.756115348 0.0001261044585 23.2882531)
(-3.696496631 0.0001253643846 22.86404142)
(-3.631797835 0.000125587509 22.44702227)
(-3.562755088 0.0001238913048 22.03773464)
(-3.487930935 0.0001209968793 21.63612008)
(-3.406212317 0.0001177710316 21.24280852)
(-3.319738287 0.0001112619673 20.85862587)
(-3.226198511 0.0001110458013 20.4840571)
(-3.12665658 0.0001047189499 20.11985522)
(-3.019624327 0.000102162806 19.76598072)
(-2.906439252 9.74165189e-05 19.42281275)
(-2.785287474 9.158299646e-05 19.09129818)
(-2.657304523 8.458283029e-05 18.77155436)
(-2.518919734 8.024848491e-05 18.46493069)
(-2.373558071 7.359263176e-05 18.17034277)
(-2.216836062 6.666463891e-05 17.88992816)
(-2.051064907 5.712848811e-05 17.62321771)
(-1.872547891 4.998722114e-05 17.37244764)
(-1.681277493 4.162465408e-05 17.13825688)
(-1.475998199 3.194032423e-05 16.92143292)
(-1.254089729 2.142459222e-05 16.72483361)
(-1.016290258 8.791910326e-06 16.55036552)
(-0.7545046996 -6.095862981e-06 16.39668533)
(-0.4776770517 -1.846018511e-05 16.29017455)
(-0.1746862019 -1.3390919e-05 16.19290263)
(-0.09880004576 1.148398043e-06 46.51474946)
(-0.2193179873 2.018236081e-06 46.5092862)
(-0.3628811534 5.051310791e-06 46.48472155)
(-0.5026198836 7.636957804e-06 46.44217064)
(-0.6463891206 9.487179497e-06 46.38455451)
(-0.7885339739 1.253710122e-05 46.30769558)
(-0.9316759484 1.57005597e-05 46.21567197)
(-1.073371113 1.81141768e-05 46.10572618)
(-1.21553777 1.928606434e-05 45.98102081)
(-1.356130339 2.160603685e-05 45.83974803)
(-1.497724605 2.15052794e-05 45.68423002)
(-1.636049616 2.545997108e-05 45.51018626)
(-1.774517803 3.117590213e-05 45.32236881)
(-1.91072092 3.146617419e-05 45.11905458)
(-2.046449112 3.449689193e-05 44.90178662)
(-2.178846926 3.921293084e-05 44.6686518)
(-2.31169122 4.286631045e-05 44.42272708)
(-2.439837719 4.559575949e-05 44.1615132)
(-2.568616643 4.630988368e-05 43.88851913)
(-2.69357904 5.090600362e-05 43.60127953)
(-2.814828691 5.325088366e-05 43.30020911)
(-2.938226107 5.159878232e-05 42.98907983)
(-3.053282957 6.017503832e-05 42.66365246)
(-3.171100483 5.955093993e-05 42.32850326)
(-3.281426775 6.451759397e-05 41.97976903)
(-3.390826632 6.914243851e-05 41.62098463)
(-3.497445249 6.769089147e-05 41.25221339)
(-3.6005538 6.940273816e-05 40.87300328)
(-3.699066758 7.490220825e-05 40.48375149)
(-3.795420603 8.179938939e-05 40.0862158)
(-3.88799775 8.436275963e-05 39.68018137)
(-3.977210288 8.733461044e-05 39.2649984)
(-4.062110718 9.103806334e-05 38.84176309)
(-4.144615831 9.246341503e-05 38.4113462)
(-4.222099814 9.691401763e-05 37.9727861)
(-4.296011529 0.0001010969304 37.52780897)
(-4.366461386 0.0001034845668 37.07736495)
(-4.432745055 0.0001035067917 36.62147735)
(-4.496509614 0.0001057465677 36.16031651)
(-4.554442911 0.0001100061846 35.69402308)
(-4.609087924 0.0001153237549 35.22271023)
(-4.658485421 0.0001190489727 34.74716814)
(-4.703643915 0.0001234678337 34.26817865)
(-4.747149061 0.0001218186219 33.78700858)
(-4.781116174 0.0001253732942 33.30197339)
(-4.817163613 0.0001227410366 32.8160639)
(-4.844196401 0.0001311651765 32.32776575)
(-4.870600551 0.0001347486436 31.83849047)
(-4.890497274 0.0001377303096 31.34812849)
(-4.90623067 0.0001384960166 30.85684236)
(-4.915092046 0.0001395146812 30.36509939)
(-4.924310023 0.0001400224205 29.8747225)
(-4.924588228 0.0001461260291 29.38373232)
(-4.921720511 0.00014706214 28.8942671)
(-4.916366335 0.0001498653847 28.40708802)
(-4.902854234 0.000151827499 27.92163642)
(-4.886113413 0.0001532748325 27.43818319)
(-4.865791769 0.000153836922 26.95821141)
(-4.83806265 0.0001485333434 26.48207968)
(-4.807732765 0.0001488562139 26.00861568)
(-4.771652509 0.0001469573572 25.53900683)
(-4.728163339 0.0001510177239 25.07362639)
(-4.683071624 0.0001536935066 24.61364228)
(-4.629687818 0.0001561841567 24.15803318)
(-4.571875426 0.0001572584992 23.70754705)
(-4.508422049 0.0001554863066 23.26376135)
(-4.438620263 0.0001537214909 22.8266885)
(-4.364624516 0.0001508844462 22.3963185)
(-4.284225907 0.0001485854704 21.97266387)
(-4.19581526 0.0001476050938 21.5558925)
(-4.10259279 0.000143704669 21.14681187)
(-4.001876075 0.0001366989049 20.74684031)
(-3.894890195 0.0001337606246 20.35546437)
(-3.780500345 0.0001286699807 19.9734071)
(-3.657244966 0.0001248218788 19.60135758)
(-3.52728201 0.0001169784687 19.2392892)
(-3.388016184 0.0001093817906 18.88766395)
(-3.241399905 0.0001030352289 18.54644355)
(-3.083012178 9.742491542e-05 18.21710931)
(-2.916268421 8.928267047e-05 17.89824575)
(-2.737898257 8.159666261e-05 17.59129994)
(-2.548068574 7.220844765e-05 17.29642253)
(-2.344238299 6.230979579e-05 17.01460952)
(-2.127339928 5.083232665e-05 16.74423659)
(-1.891921149 4.004970462e-05 16.48755384)
(-1.634090139 2.724341575e-05 16.24382081)
(-1.362758525 1.027484604e-05 16.02331936)
(-1.035191821 -4.7394836e-06 15.78614439)
(-0.7019083002 -1.761196566e-05 15.64655493)
(-0.2976634485 -1.012216672e-05 15.36030476)
(-0.1142790417 1.931977636e-06 46.94873583)
(-0.2550639757 2.488293475e-06 46.94834423)
(-0.4225333277 6.21144693e-06 46.92747771)
(-0.5856673841 9.476178999e-06 46.8867415)
(-0.7533662391 1.113103361e-05 46.83138667)
(-0.9187118066 1.48260985e-05 46.75510809)
(-1.085142144 1.92456981e-05 46.66332366)
(-1.250644531 2.189314774e-05 46.55397811)
(-1.416154219 2.339106358e-05 46.42927309)
(-1.579522951 2.560615294e-05 46.28771487)
(-1.744494026 2.621155421e-05 46.13205878)
(-1.90602971 2.963345432e-05 45.95696468)
(-2.066614526 3.71371269e-05 45.76698481)
(-2.225506937 3.896809878e-05 45.56220284)
(-2.382566085 4.293827114e-05 45.34230865)
(-2.538136115 4.651775356e-05 45.10789639)
(-2.692840591 5.072517791e-05 44.85924011)
(-2.84189565 5.512274372e-05 44.59435451)
(-2.991786991 5.51058764e-05 44.31826717)
(-3.13780783 5.98027003e-05 44.02761091)
(-3.278403078 6.372548699e-05 43.72224697)
(-3.421240611 6.400169293e-05 43.40698392)
(-3.558015778 6.93224574e-05 43.07797677)
(-3.69200495 7.140056415e-05 42.73624213)
(-3.821524946 7.995245429e-05 42.38227512)
(-3.949544373 8.31686562e-05 42.0188053)
(-4.073730986 8.354338807e-05 41.64431193)
(-4.193375091 8.549919171e-05 41.25810763)
(-4.307204931 9.163361961e-05 40.86160875)
(-4.420632832 9.606389596e-05 40.45834758)
(-4.528580319 0.0001003364768 40.04603966)
(-4.631771301 0.0001058729991 39.62304726)
(-4.731186833 0.0001073271254 39.19247191)
(-4.826542194 0.0001094335577 38.7542293)
(-4.915659352 0.0001146904086 38.30752266)
(-5.002235757 0.0001196547231 37.85488992)
(-5.085960393 0.0001213462485 37.39703404)
(-5.160826758 0.0001245911955 36.93206658)
(-5.234517048 0.0001289111258 36.46198016)
(-5.30286288 0.0001317548695 35.98687747)
(-5.363942151 0.0001396709145 35.5057939)
(-5.423664789 0.0001429519887 35.0211946)
(-5.474264 0.0001483411075 34.53234498)
(-5.525915196 0.0001471358158 34.04178252)
(-5.564936965 0.0001504767193 33.54720323)
(-5.608729787 0.0001472593435 33.05230563)
(-5.639401569 0.0001573583538 32.55393155)
(-5.671901227 0.0001602098917 32.05430557)
(-5.694297615 0.000163680195 31.55266017)
(-5.711760985 0.0001659152698 31.04982183)
(-5.725663793 0.0001644209008 30.54807894)
(-5.736291533 0.0001673118019 30.04701253)
(-5.735307112 0.0001763947965 29.54421625)
(-5.735293112 0.0001739262038 29.04348064)
(-5.7277236 0.000175811104 28.54454473)
(-5.714031322 0.0001784495349 28.04728319)
(-5.693856517 0.0001838367439 27.55230226)
(-5.673126937 0.0001822402268 27.0604307)
(-5.643189147 0.000176422308 26.57128939)
(-5.60853293 0.0001789182014 26.08440979)
(-5.564730345 0.0001787663276 25.60099956)
(-5.518071415 0.0001813034055 25.12287777)
(-5.467489335 0.0001823722973 24.64991249)
(-5.406273306 0.0001863457854 24.18011475)
(-5.343056731 0.0001862718787 23.71486648)
(-5.272564426 0.0001852903701 23.25607728)
(-5.194940232 0.0001822287656 22.80417171)
(-5.111170778 0.0001764614162 22.35846222)
(-5.020150864 0.0001761412965 21.91880607)
(-4.921683895 0.0001767239246 21.48588959)
(-4.819723941 0.0001686691428 21.05924358)
(-4.707943736 0.0001620486436 20.64088762)
(-4.588266641 0.0001597041687 20.2312444)
(-4.460405373 0.000155132241 19.82967442)
(-4.326078438 0.0001482399975 19.43641368)
(-4.180957242 0.0001400611951 19.05337555)
(-4.027340818 0.0001305306771 18.67937088)
(-3.866340969 0.0001230930103 18.3144081)
(-3.691244888 0.0001201225135 17.96057211)
(-3.510103136 0.0001091558863 17.61461778)
(-3.315868088 0.0001000661215 17.27883697)
(-3.110807405 8.776503901e-05 16.95239184)
(-2.891583517 7.762112203e-05 16.6366726)
(-2.658369851 6.912826565e-05 16.32992211)
(-2.415738148 5.364203057e-05 16.02799641)
(-2.132075584 4.131272865e-05 15.72430138)
(-1.890013967 1.995977834e-05 15.46303297)
(-1.495055311 1.045170806e-05 15.10762469)
(-1.290119072 -3.229900586e-06 14.94070262)
(-0.7433445113 1.559665003e-05 14.39363151)
(-0.1307265607 2.375410491e-06 47.4492218)
(-0.2920743585 2.702213747e-06 47.45151993)
(-0.4822539683 6.937467129e-06 47.43619305)
(-0.6679566841 1.070581244e-05 47.3956165)
(-0.8595690078 1.299041186e-05 47.34097546)
(-1.047930311 1.746322585e-05 47.26606236)
(-1.237789869 2.278072612e-05 47.17573696)
(-1.427632431 2.52220073e-05 47.06795339)
(-1.614870167 2.820446364e-05 46.94181476)
(-1.80167736 2.900301255e-05 46.80166662)
(-1.988955611 3.106244436e-05 46.64488053)
(-2.173819834 3.518143994e-05 46.46903581)
(-2.356574276 4.284488811e-05 46.27710746)
(-2.53792372 4.705802594e-05 46.07104936)
(-2.718814978 4.872583844e-05 45.85114078)
(-2.895426917 5.274199106e-05 45.61379955)
(-3.071890451 5.837276719e-05 45.36226059)
(-3.241641015 6.351260836e-05 45.09357165)
(-3.412466625 6.239100365e-05 44.8146476)
(-3.578569853 6.899885082e-05 44.52026246)
(-3.740502299 7.315359768e-05 44.21175338)
(-3.901897466 7.601146074e-05 43.89194677)
(-4.057467041 8.277861479e-05 43.55752144)
(-4.210756957 8.467464524e-05 43.21112601)
(-4.359555534 9.183624929e-05 42.85279951)
(-4.505654881 9.595881067e-05 42.48393409)
(-4.645828248 9.987630351e-05 42.10224478)
(-4.781751539 0.0001017613891 41.70903464)
(-4.912311083 0.0001087668515 41.3063085)
(-5.042918344 0.0001093379339 40.89731243)
(-5.165433749 0.0001165770963 40.47727197)
(-5.280483377 0.0001258607275 40.04570014)
(-5.396435412 0.0001266406113 39.60820595)
(-5.503853969 0.000126576342 39.16140903)
(-5.606120218 0.0001326990178 38.70694249)
(-5.705094972 0.0001386805884 38.2466582)
(-5.799581173 0.000140004568 37.77969208)
(-5.886112472 0.0001450515376 37.30575482)
(-5.969977079 0.000149510906 36.82689798)
(-6.04941881 0.0001537146571 36.34219218)
(-6.117894021 0.0001623691858 35.85056787)
(-6.186064857 0.0001689682122 35.35577302)
(-6.240623173 0.0001777737552 34.85649994)
(-6.303754278 0.0001718839628 34.35830212)
(-6.348801331 0.0001750925622 33.85365842)
(-6.399994761 0.000172389551 33.3485626)
(-6.435412549 0.0001840182301 32.83948356)